VARIABLES = "x" "y" "z"
ZONE I=1 J=1 K=2 F=BLOCK
  0.0000000E+00  0.0000000E+00
  0.9999999E+00  0.9999999E+00
  0.0000000E+00  0.0000000E+00
