VARIABLES = "x" "y" "z"
ZONE I=2 J=2 K=2 F=BLOCK
  0.0000000E+00  0.4000000E+01  0.2000000E+01  0.6000000E+01  0.1000000E+01  0.5000000E+01
  0.3000000E+01  0.7000000E+01
  0.0000000E+00 -0.4000000E+01 -0.2000000E+01 -0.6000000E+01 -0.1000000E+01 -0.5000000E+01
 -0.3000000E+01 -0.7000000E+01
  0.0000000E+00  0.0000000E+00  0.0000000E+00  0.0000000E+00  0.0000000E+00  0.0000000E+00
  0.0000000E+00  0.0000000E+00
