VARIABLES = "xyz"
ZONE I=3 J=2 F=BLOCK
  0.0000000E+00  0.2000000E+01  0.4000000E+01  0.1000000E+01  0.3000000E+01  0.5000000E+01
