VARIABLES = "x" "y" "z"
ZONE I=2 J=2 K=2 F=BLOCK
  0.1000000E+04  0.1004000E+04  0.1002000E+04  0.1006000E+04  0.1001000E+04  0.1005000E+04
  0.1003000E+04  0.1007000E+04
  0.0000000E+00 -0.4000000E+01 -0.2000000E+01 -0.6000000E+01 -0.1000000E+01 -0.5000000E+01
 -0.3000000E+01 -0.7000000E+01
  0.1008000E+04  0.1012000E+04  0.1010000E+04  0.1014000E+04  0.1009000E+04  0.1013000E+04
  0.1011000E+04  0.1015000E+04
