TITLE = ""
VARIABLES = "F"
ZONE I=1,  F=BLOCK
 -0.9845033E+00
TITLE = ""
VARIABLES = "F"
ZONE I=1,  F=BLOCK
 -0.9659228E+00
TITLE = ""
VARIABLES = "F"
ZONE I=1,  F=BLOCK
 -0.9860899E+00
TITLE = ""
VARIABLES = "F"
ZONE I=1,  F=BLOCK
 -0.1079839E+01
TITLE = ""
VARIABLES = "F"
ZONE I=1,  F=BLOCK
 -0.1322295E+01
TITLE = ""
VARIABLES = "F"
ZONE I=1,  F=BLOCK
 -0.1698470E+01
TITLE = ""
VARIABLES = "F"
ZONE I=1,  F=BLOCK
 -0.1958369E+01
TITLE = ""
VARIABLES = "F"
ZONE I=1,  F=BLOCK
 -0.1822873E+01
TITLE = ""
VARIABLES = "F"
ZONE I=1,  F=BLOCK
 -0.1406290E+01
TITLE = ""
VARIABLES = "F"
ZONE I=1,  F=BLOCK
 -0.1103950E+01
TITLE = ""
VARIABLES = "F"
ZONE I=1,  F=BLOCK
 -0.1057920E+01
TITLE = ""
VARIABLES = "F"
ZONE I=1,  F=BLOCK
 -0.1093540E+01
TITLE = ""
VARIABLES = "F"
ZONE I=1,  F=BLOCK
 -0.1076183E+01
TITLE = ""
VARIABLES = "F"
ZONE I=1,  F=BLOCK
 -0.1033408E+01
TITLE = ""
VARIABLES = "F"
ZONE I=1,  F=BLOCK
 -0.1012345E+01
TITLE = ""
VARIABLES = "F"
ZONE I=1,  F=BLOCK
 -0.9989927E+00
TITLE = ""
VARIABLES = "F"
ZONE I=1,  F=BLOCK
 -0.9984771E+00
TITLE = ""
VARIABLES = "F"
ZONE I=1,  F=BLOCK
 -0.1087461E+01
TITLE = ""
VARIABLES = "F"
ZONE I=1,  F=BLOCK
 -0.1275751E+01
TITLE = ""
VARIABLES = "F"
ZONE I=1,  F=BLOCK
 -0.1413696E+01
TITLE = ""
VARIABLES = "F"
ZONE I=1,  F=BLOCK
 -0.1372428E+01
TITLE = ""
VARIABLES = "F"
ZONE I=1,  F=BLOCK
 -0.1209477E+01
TITLE = ""
VARIABLES = "F"
ZONE I=1,  F=BLOCK
 -0.1062655E+01
TITLE = ""
VARIABLES = "F"
ZONE I=1,  F=BLOCK
 -0.9934794E+00
TITLE = ""
VARIABLES = "F"
ZONE I=1,  F=BLOCK
 -0.9926686E+00
TITLE = ""
VARIABLES = "F"
ZONE I=1,  F=BLOCK
 -0.9906298E+00
TITLE = ""
VARIABLES = "F"
ZONE I=1,  F=BLOCK
 -0.9552371E+00
TITLE = ""
VARIABLES = "F"
ZONE I=1,  F=BLOCK
 -0.9587007E+00
TITLE = ""
VARIABLES = "F"
ZONE I=1,  F=BLOCK
 -0.1030310E+01
TITLE = ""
VARIABLES = "F"
ZONE I=1,  F=BLOCK
 -0.1249859E+01
TITLE = ""
VARIABLES = "F"
ZONE I=1,  F=BLOCK
 -0.1642992E+01
TITLE = ""
VARIABLES = "F"
ZONE I=1,  F=BLOCK
 -0.1968064E+01
TITLE = ""
VARIABLES = "F"
ZONE I=1,  F=BLOCK
 -0.1866517E+01
TITLE = ""
VARIABLES = "F"
ZONE I=1,  F=BLOCK
 -0.1401848E+01
TITLE = ""
VARIABLES = "F"
ZONE I=1,  F=BLOCK
 -0.1033438E+01
TITLE = ""
VARIABLES = "F"
ZONE I=1,  F=BLOCK
 -0.9670424E+00
TITLE = ""
VARIABLES = "F"
ZONE I=1,  F=BLOCK
 -0.1009379E+01
TITLE = ""
VARIABLES = "F"
ZONE I=1,  F=BLOCK
 -0.9969068E+00
TITLE = ""
VARIABLES = "F"
ZONE I=1,  F=BLOCK
 -0.9704444E+00
TITLE = ""
VARIABLES = "F"
ZONE I=1,  F=BLOCK
 -0.9895752E+00
TITLE = ""
VARIABLES = "F"
ZONE I=1,  F=BLOCK
 -0.1006485E+01
TITLE = ""
VARIABLES = "F"
ZONE I=1,  F=BLOCK
 -0.9893763E+00
TITLE = ""
VARIABLES = "F"
ZONE I=1,  F=BLOCK
 -0.1041129E+01
TITLE = ""
VARIABLES = "F"
ZONE I=1,  F=BLOCK
 -0.1211321E+01
TITLE = ""
VARIABLES = "F"
ZONE I=1,  F=BLOCK
 -0.1335790E+01
TITLE = ""
VARIABLES = "F"
ZONE I=1,  F=BLOCK
 -0.1275542E+01
TITLE = ""
VARIABLES = "F"
ZONE I=1,  F=BLOCK
 -0.1121164E+01
TITLE = ""
VARIABLES = "F"
ZONE I=1,  F=BLOCK
 -0.1019256E+01
TITLE = ""
VARIABLES = "F"
ZONE I=1,  F=BLOCK
 -0.9966195E+00
TITLE = ""
VARIABLES = "F"
ZONE I=1,  F=BLOCK
 -0.1018724E+01
TITLE = ""
VARIABLES = "F"
ZONE I=1,  F=BLOCK
 -0.1018320E+01
TITLE = ""
VARIABLES = "F"
ZONE I=1,  F=BLOCK
 -0.9791897E+00
TITLE = ""
VARIABLES = "F"
ZONE I=1,  F=BLOCK
 -0.9802995E+00
TITLE = ""
VARIABLES = "F"
ZONE I=1,  F=BLOCK
 -0.1030118E+01
TITLE = ""
VARIABLES = "F"
ZONE I=1,  F=BLOCK
 -0.1197193E+01
TITLE = ""
VARIABLES = "F"
ZONE I=1,  F=BLOCK
 -0.1554078E+01
TITLE = ""
VARIABLES = "F"
ZONE I=1,  F=BLOCK
 -0.1911251E+01
TITLE = ""
VARIABLES = "F"
ZONE I=1,  F=BLOCK
 -0.1875179E+01
TITLE = ""
VARIABLES = "F"
ZONE I=1,  F=BLOCK
 -0.1437516E+01
TITLE = ""
VARIABLES = "F"
ZONE I=1,  F=BLOCK
 -0.1053476E+01
TITLE = ""
VARIABLES = "F"
ZONE I=1,  F=BLOCK
 -0.9664650E+00
TITLE = ""
VARIABLES = "F"
ZONE I=1,  F=BLOCK
 -0.9974569E+00
TITLE = ""
VARIABLES = "F"
ZONE I=1,  F=BLOCK
 -0.9815262E+00
TITLE = ""
VARIABLES = "F"
ZONE I=1,  F=BLOCK
 -0.9627421E+00
TITLE = ""
VARIABLES = "F"
ZONE I=1,  F=BLOCK
 -0.9971770E+00
TITLE = ""
VARIABLES = "F"
ZONE I=1,  F=BLOCK
 -0.1015459E+01
TITLE = ""
VARIABLES = "F"
ZONE I=1,  F=BLOCK
 -0.9766155E+00
TITLE = ""
VARIABLES = "F"
ZONE I=1,  F=BLOCK
 -0.1015312E+01
TITLE = ""
VARIABLES = "F"
ZONE I=1,  F=BLOCK
 -0.1197573E+01
TITLE = ""
VARIABLES = "F"
ZONE I=1,  F=BLOCK
 -0.1322007E+01
TITLE = ""
VARIABLES = "F"
ZONE I=1,  F=BLOCK
 -0.1240080E+01
TITLE = ""
VARIABLES = "F"
ZONE I=1,  F=BLOCK
 -0.1085544E+01
TITLE = ""
VARIABLES = "F"
ZONE I=1,  F=BLOCK
 -0.1011760E+01
TITLE = ""
VARIABLES = "F"
ZONE I=1,  F=BLOCK
 -0.1010305E+01
TITLE = ""
VARIABLES = "F"
ZONE I=1,  F=BLOCK
 -0.1036810E+01
TITLE = ""
VARIABLES = "F"
ZONE I=1,  F=BLOCK
 -0.1028208E+01
TITLE = ""
VARIABLES = "F"
ZONE I=1,  F=BLOCK
 -0.9958952E+00
TITLE = ""
VARIABLES = "F"
ZONE I=1,  F=BLOCK
 -0.1005726E+01
TITLE = ""
VARIABLES = "F"
ZONE I=1,  F=BLOCK
 -0.1047356E+01
TITLE = ""
VARIABLES = "F"
ZONE I=1,  F=BLOCK
 -0.1188369E+01
TITLE = ""
VARIABLES = "F"
ZONE I=1,  F=BLOCK
 -0.1531284E+01
TITLE = ""
VARIABLES = "F"
ZONE I=1,  F=BLOCK
 -0.1906324E+01
TITLE = ""
VARIABLES = "F"
ZONE I=1,  F=BLOCK
 -0.1901071E+01
TITLE = ""
VARIABLES = "F"
ZONE I=1,  F=BLOCK
 -0.1481774E+01
TITLE = ""
VARIABLES = "F"
ZONE I=1,  F=BLOCK
 -0.1098653E+01
TITLE = ""
VARIABLES = "F"
ZONE I=1,  F=BLOCK
 -0.1000708E+01
TITLE = ""
VARIABLES = "F"
ZONE I=1,  F=BLOCK
 -0.1020791E+01
TITLE = ""
VARIABLES = "F"
ZONE I=1,  F=BLOCK
 -0.1003588E+01
TITLE = ""
VARIABLES = "F"
ZONE I=1,  F=BLOCK
 -0.9845311E+00
TITLE = ""
VARIABLES = "F"
ZONE I=1,  F=BLOCK
 -0.1005432E+01
TITLE = ""
VARIABLES = "F"
ZONE I=1,  F=BLOCK
 -0.9978929E+00
TITLE = ""
VARIABLES = "F"
ZONE I=1,  F=BLOCK
 -0.9397475E+00
TITLE = ""
VARIABLES = "F"
ZONE I=1,  F=BLOCK
 -0.9908931E+00
TITLE = ""
VARIABLES = "F"
ZONE I=1,  F=BLOCK
 -0.1211259E+01
TITLE = ""
VARIABLES = "F"
ZONE I=1,  F=BLOCK
 -0.1352689E+01
TITLE = ""
VARIABLES = "F"
ZONE I=1,  F=BLOCK
 -0.1252316E+01
TITLE = ""
VARIABLES = "F"
ZONE I=1,  F=BLOCK
 -0.1082734E+01
TITLE = ""
VARIABLES = "F"
ZONE I=1,  F=BLOCK
 -0.1009054E+01
TITLE = ""
VARIABLES = "F"
ZONE I=1,  F=BLOCK
 -0.1001033E+01
TITLE = ""
VARIABLES = "F"
ZONE I=1,  F=BLOCK
 -0.1018197E+01
TITLE = ""
VARIABLES = "F"
ZONE I=1,  F=BLOCK
 -0.1017250E+01
TITLE = ""
VARIABLES = "F"
ZONE I=1,  F=BLOCK
 -0.9925524E+00
TITLE = ""
VARIABLES = "F"
ZONE I=1,  F=BLOCK
 -0.1007446E+01
TITLE = ""
VARIABLES = "F"
ZONE I=1,  F=BLOCK
 -0.1042147E+01
TITLE = ""
VARIABLES = "F"
ZONE I=1,  F=BLOCK
 -0.1181277E+01
TITLE = ""
VARIABLES = "F"
ZONE I=1,  F=BLOCK
 -0.1538173E+01
TITLE = ""
VARIABLES = "F"
ZONE I=1,  F=BLOCK
 -0.1913222E+01
TITLE = ""
VARIABLES = "F"
ZONE I=1,  F=BLOCK
 -0.1879232E+01
TITLE = ""
VARIABLES = "F"
ZONE I=1,  F=BLOCK
 -0.1440833E+01
TITLE = ""
VARIABLES = "F"
ZONE I=1,  F=BLOCK
 -0.1069038E+01
TITLE = ""
VARIABLES = "F"
ZONE I=1,  F=BLOCK
 -0.9857768E+00
TITLE = ""
VARIABLES = "F"
ZONE I=1,  F=BLOCK
 -0.1011519E+01
TITLE = ""
VARIABLES = "F"
ZONE I=1,  F=BLOCK
 -0.1001804E+01
TITLE = ""
VARIABLES = "F"
ZONE I=1,  F=BLOCK
 -0.9865944E+00
TITLE = ""
VARIABLES = "F"
ZONE I=1,  F=BLOCK
 -0.9992988E+00
TITLE = ""
VARIABLES = "F"
ZONE I=1,  F=BLOCK
 -0.9783562E+00
TITLE = ""
VARIABLES = "F"
ZONE I=1,  F=BLOCK
 -0.9049852E+00
TITLE = ""
VARIABLES = "F"
ZONE I=1,  F=BLOCK
 -0.9427783E+00
TITLE = ""
VARIABLES = "F"
ZONE I=1,  F=BLOCK
 -0.1162501E+01
TITLE = ""
VARIABLES = "F"
ZONE I=1,  F=BLOCK
 -0.1308475E+01
TITLE = ""
VARIABLES = "F"
ZONE I=1,  F=BLOCK
 -0.1206884E+01
TITLE = ""
VARIABLES = "F"
ZONE I=1,  F=BLOCK
 -0.1043986E+01
TITLE = ""
VARIABLES = "F"
ZONE I=1,  F=BLOCK
 -0.9874039E+00
TITLE = ""
VARIABLES = "F"
ZONE I=1,  F=BLOCK
 -0.9872503E+00
TITLE = ""
VARIABLES = "F"
ZONE I=1,  F=BLOCK
 -0.1001958E+01
TITLE = ""
VARIABLES = "F"
ZONE I=1,  F=BLOCK
 -0.1009057E+01
TITLE = ""
VARIABLES = "F"
ZONE I=1,  F=BLOCK
 -0.9891168E+00
TITLE = ""
VARIABLES = "F"
ZONE I=1,  F=BLOCK
 -0.1005282E+01
TITLE = ""
VARIABLES = "F"
ZONE I=1,  F=BLOCK
 -0.1034669E+01
TITLE = ""
VARIABLES = "F"
ZONE I=1,  F=BLOCK
 -0.1181164E+01
TITLE = ""
VARIABLES = "F"
ZONE I=1,  F=BLOCK
 -0.1558984E+01
TITLE = ""
VARIABLES = "F"
ZONE I=1,  F=BLOCK
 -0.1926801E+01
TITLE = ""
VARIABLES = "F"
ZONE I=1,  F=BLOCK
 -0.1849663E+01
TITLE = ""
VARIABLES = "F"
ZONE I=1,  F=BLOCK
 -0.1387675E+01
TITLE = ""
VARIABLES = "F"
ZONE I=1,  F=BLOCK
 -0.1033809E+01
TITLE = ""
VARIABLES = "F"
ZONE I=1,  F=BLOCK
 -0.9716335E+00
TITLE = ""
VARIABLES = "F"
ZONE I=1,  F=BLOCK
 -0.1001386E+01
TITLE = ""
VARIABLES = "F"
ZONE I=1,  F=BLOCK
 -0.9896455E+00
TITLE = ""
VARIABLES = "F"
ZONE I=1,  F=BLOCK
 -0.9738291E+00
TITLE = ""
VARIABLES = "F"
ZONE I=1,  F=BLOCK
 -0.9970621E+00
TITLE = ""
VARIABLES = "F"
ZONE I=1,  F=BLOCK
 -0.9980302E+00
TITLE = ""
VARIABLES = "F"
ZONE I=1,  F=BLOCK
 -0.9240869E+00
TITLE = ""
VARIABLES = "F"
ZONE I=1,  F=BLOCK
 -0.9218571E+00
TITLE = ""
VARIABLES = "F"
ZONE I=1,  F=BLOCK
 -0.1102509E+01
TITLE = ""
VARIABLES = "F"
ZONE I=1,  F=BLOCK
 -0.1242507E+01
TITLE = ""
VARIABLES = "F"
ZONE I=1,  F=BLOCK
 -0.1154050E+01
TITLE = ""
VARIABLES = "F"
ZONE I=1,  F=BLOCK
 -0.1011230E+01
TITLE = ""
VARIABLES = "F"
ZONE I=1,  F=BLOCK
 -0.9815632E+00
TITLE = ""
VARIABLES = "F"
ZONE I=1,  F=BLOCK
 -0.1002068E+01
TITLE = ""
VARIABLES = "F"
ZONE I=1,  F=BLOCK
 -0.1019618E+01
TITLE = ""
VARIABLES = "F"
ZONE I=1,  F=BLOCK
 -0.1017013E+01
TITLE = ""
VARIABLES = "F"
ZONE I=1,  F=BLOCK
 -0.9982101E+00
TITLE = ""
VARIABLES = "F"
ZONE I=1,  F=BLOCK
 -0.1014248E+01
TITLE = ""
VARIABLES = "F"
ZONE I=1,  F=BLOCK
 -0.1043253E+01
TITLE = ""
VARIABLES = "F"
ZONE I=1,  F=BLOCK
 -0.1201117E+01
TITLE = ""
VARIABLES = "F"
ZONE I=1,  F=BLOCK
 -0.1600783E+01
TITLE = ""
VARIABLES = "F"
ZONE I=1,  F=BLOCK
 -0.1972760E+01
TITLE = ""
VARIABLES = "F"
ZONE I=1,  F=BLOCK
 -0.1877407E+01
TITLE = ""
VARIABLES = "F"
ZONE I=1,  F=BLOCK
 -0.1406960E+01
TITLE = ""
VARIABLES = "F"
ZONE I=1,  F=BLOCK
 -0.1062301E+01
TITLE = ""
VARIABLES = "F"
ZONE I=1,  F=BLOCK
 -0.1005344E+01
TITLE = ""
VARIABLES = "F"
ZONE I=1,  F=BLOCK
 -0.1029150E+01
TITLE = ""
VARIABLES = "F"
ZONE I=1,  F=BLOCK
 -0.1004240E+01
TITLE = ""
VARIABLES = "F"
ZONE I=1,  F=BLOCK
 -0.9737103E+00
TITLE = ""
VARIABLES = "F"
ZONE I=1,  F=BLOCK
 -0.1000762E+01
TITLE = ""
VARIABLES = "F"
ZONE I=1,  F=BLOCK
 -0.1028993E+01
TITLE = ""
VARIABLES = "F"
ZONE I=1,  F=BLOCK
 -0.9684884E+00
TITLE = ""
VARIABLES = "F"
ZONE I=1,  F=BLOCK
 -0.9482499E+00
TITLE = ""
VARIABLES = "F"
ZONE I=1,  F=BLOCK
 -0.1119591E+01
TITLE = ""
VARIABLES = "F"
ZONE I=1,  F=BLOCK
 -0.1278236E+01
TITLE = ""
VARIABLES = "F"
ZONE I=1,  F=BLOCK
 -0.1198849E+01
TITLE = ""
VARIABLES = "F"
ZONE I=1,  F=BLOCK
 -0.1039302E+01
TITLE = ""
VARIABLES = "F"
ZONE I=1,  F=BLOCK
 -0.9971318E+00
TITLE = ""
VARIABLES = "F"
ZONE I=1,  F=BLOCK
 -0.1021874E+01
TITLE = ""
VARIABLES = "F"
ZONE I=1,  F=BLOCK
 -0.1041572E+01
TITLE = ""
VARIABLES = "F"
ZONE I=1,  F=BLOCK
 -0.1031498E+01
TITLE = ""
VARIABLES = "F"
ZONE I=1,  F=BLOCK
 -0.1009236E+01
TITLE = ""
VARIABLES = "F"
ZONE I=1,  F=BLOCK
 -0.1019027E+01
TITLE = ""
VARIABLES = "F"
ZONE I=1,  F=BLOCK
 -0.1040463E+01
TITLE = ""
VARIABLES = "F"
ZONE I=1,  F=BLOCK
 -0.1195225E+01
TITLE = ""
VARIABLES = "F"
ZONE I=1,  F=BLOCK
 -0.1597576E+01
TITLE = ""
VARIABLES = "F"
ZONE I=1,  F=BLOCK
 -0.1969570E+01
TITLE = ""
VARIABLES = "F"
ZONE I=1,  F=BLOCK
 -0.1875641E+01
TITLE = ""
VARIABLES = "F"
ZONE I=1,  F=BLOCK
 -0.1417734E+01
TITLE = ""
VARIABLES = "F"
ZONE I=1,  F=BLOCK
 -0.1083879E+01
TITLE = ""
VARIABLES = "F"
ZONE I=1,  F=BLOCK
 -0.1025302E+01
TITLE = ""
VARIABLES = "F"
ZONE I=1,  F=BLOCK
 -0.1046682E+01
TITLE = ""
VARIABLES = "F"
ZONE I=1,  F=BLOCK
 -0.1021015E+01
TITLE = ""
VARIABLES = "F"
ZONE I=1,  F=BLOCK
 -0.9801783E+00
TITLE = ""
VARIABLES = "F"
ZONE I=1,  F=BLOCK
 -0.9930621E+00
TITLE = ""
VARIABLES = "F"
ZONE I=1,  F=BLOCK
 -0.1017793E+01
TITLE = ""
VARIABLES = "F"
ZONE I=1,  F=BLOCK
 -0.9609281E+00
TITLE = ""
VARIABLES = "F"
ZONE I=1,  F=BLOCK
 -0.9520420E+00
TITLE = ""
VARIABLES = "F"
ZONE I=1,  F=BLOCK
 -0.1160348E+01
TITLE = ""
VARIABLES = "F"
ZONE I=1,  F=BLOCK
 -0.1361334E+01
TITLE = ""
VARIABLES = "F"
ZONE I=1,  F=BLOCK
 -0.1271079E+01
TITLE = ""
VARIABLES = "F"
ZONE I=1,  F=BLOCK
 -0.1049816E+01
TITLE = ""
VARIABLES = "F"
ZONE I=1,  F=BLOCK
 -0.9649659E+00
TITLE = ""
VARIABLES = "F"
ZONE I=1,  F=BLOCK
 -0.9941264E+00
TITLE = ""
VARIABLES = "F"
ZONE I=1,  F=BLOCK
 -0.1031439E+01
TITLE = ""
VARIABLES = "F"
ZONE I=1,  F=BLOCK
 -0.1042303E+01
TITLE = ""
VARIABLES = "F"
ZONE I=1,  F=BLOCK
 -0.1016237E+01
TITLE = ""
VARIABLES = "F"
ZONE I=1,  F=BLOCK
 -0.1021561E+01
TITLE = ""
VARIABLES = "F"
ZONE I=1,  F=BLOCK
 -0.1035880E+01
TITLE = ""
VARIABLES = "F"
ZONE I=1,  F=BLOCK
 -0.1177450E+01
TITLE = ""
VARIABLES = "F"
ZONE I=1,  F=BLOCK
 -0.1563665E+01
TITLE = ""
VARIABLES = "F"
ZONE I=1,  F=BLOCK
 -0.1927108E+01
TITLE = ""
VARIABLES = "F"
ZONE I=1,  F=BLOCK
 -0.1845259E+01
TITLE = ""
VARIABLES = "F"
ZONE I=1,  F=BLOCK
 -0.1412583E+01
TITLE = ""
VARIABLES = "F"
ZONE I=1,  F=BLOCK
 -0.1087408E+01
TITLE = ""
VARIABLES = "F"
ZONE I=1,  F=BLOCK
 -0.1016711E+01
TITLE = ""
VARIABLES = "F"
ZONE I=1,  F=BLOCK
 -0.1034283E+01
TITLE = ""
VARIABLES = "F"
ZONE I=1,  F=BLOCK
 -0.1024012E+01
TITLE = ""
VARIABLES = "F"
ZONE I=1,  F=BLOCK
 -0.9961171E+00
TITLE = ""
VARIABLES = "F"
ZONE I=1,  F=BLOCK
 -0.1003095E+01
TITLE = ""
VARIABLES = "F"
ZONE I=1,  F=BLOCK
 -0.1014442E+01
TITLE = ""
VARIABLES = "F"
ZONE I=1,  F=BLOCK
 -0.9556121E+00
TITLE = ""
VARIABLES = "F"
ZONE I=1,  F=BLOCK
 -0.9619024E+00
TITLE = ""
VARIABLES = "F"
ZONE I=1,  F=BLOCK
 -0.1198434E+01
TITLE = ""
VARIABLES = "F"
ZONE I=1,  F=BLOCK
 -0.1416617E+01
TITLE = ""
VARIABLES = "F"
ZONE I=1,  F=BLOCK
 -0.1297989E+01
TITLE = ""
VARIABLES = "F"
ZONE I=1,  F=BLOCK
 -0.1020490E+01
TITLE = ""
VARIABLES = "F"
ZONE I=1,  F=BLOCK
 -0.9106563E+00
TITLE = ""
VARIABLES = "F"
ZONE I=1,  F=BLOCK
 -0.9566875E+00
TITLE = ""
VARIABLES = "F"
ZONE I=1,  F=BLOCK
 -0.1015974E+01
TITLE = ""
VARIABLES = "F"
ZONE I=1,  F=BLOCK
 -0.1066791E+01
TITLE = ""
VARIABLES = "F"
ZONE I=1,  F=BLOCK
 -0.1038990E+01
TITLE = ""
VARIABLES = "F"
ZONE I=1,  F=BLOCK
 -0.1049936E+01
TITLE = ""
VARIABLES = "F"
ZONE I=1,  F=BLOCK
 -0.1076566E+01
TITLE = ""
VARIABLES = "F"
ZONE I=1,  F=BLOCK
 -0.1220260E+01
TITLE = ""
VARIABLES = "F"
ZONE I=1,  F=BLOCK
 -0.1598925E+01
TITLE = ""
VARIABLES = "F"
ZONE I=1,  F=BLOCK
 -0.1967756E+01
TITLE = ""
VARIABLES = "F"
ZONE I=1,  F=BLOCK
 -0.1904783E+01
TITLE = ""
VARIABLES = "F"
ZONE I=1,  F=BLOCK
 -0.1471880E+01
TITLE = ""
VARIABLES = "F"
ZONE I=1,  F=BLOCK
 -0.1115377E+01
TITLE = ""
VARIABLES = "F"
ZONE I=1,  F=BLOCK
 -0.1015454E+01
TITLE = ""
VARIABLES = "F"
ZONE I=1,  F=BLOCK
 -0.1034500E+01
TITLE = ""
VARIABLES = "F"
ZONE I=1,  F=BLOCK
 -0.1048098E+01
TITLE = ""
VARIABLES = "F"
ZONE I=1,  F=BLOCK
 -0.1044173E+01
TITLE = ""
VARIABLES = "F"
ZONE I=1,  F=BLOCK
 -0.1063019E+01
TITLE = ""
VARIABLES = "F"
ZONE I=1,  F=BLOCK
 -0.1081717E+01
TITLE = ""
VARIABLES = "F"
ZONE I=1,  F=BLOCK
 -0.1038298E+01
TITLE = ""
VARIABLES = "F"
ZONE I=1,  F=BLOCK
 -0.1053122E+01
TITLE = ""
VARIABLES = "F"
ZONE I=1,  F=BLOCK
 -0.1269552E+01
TITLE = ""
VARIABLES = "F"
ZONE I=1,  F=BLOCK
 -0.1456965E+01
TITLE = ""
VARIABLES = "F"
ZONE I=1,  F=BLOCK
 -0.1330286E+01
TITLE = ""
VARIABLES = "F"
ZONE I=1,  F=BLOCK
 -0.1068680E+01
TITLE = ""
VARIABLES = "F"
ZONE I=1,  F=BLOCK
 -0.9719254E+00
TITLE = ""
VARIABLES = "F"
ZONE I=1,  F=BLOCK
 -0.1008004E+01
TITLE = ""
VARIABLES = "F"
ZONE I=1,  F=BLOCK
 -0.1042784E+01
TITLE = ""
VARIABLES = "F"
ZONE I=1,  F=BLOCK
 -0.1153933E+01
TITLE = ""
VARIABLES = "F"
ZONE I=1,  F=BLOCK
 -0.1123924E+01
TITLE = ""
VARIABLES = "F"
ZONE I=1,  F=BLOCK
 -0.1135664E+01
TITLE = ""
VARIABLES = "F"
ZONE I=1,  F=BLOCK
 -0.1179137E+01
TITLE = ""
VARIABLES = "F"
ZONE I=1,  F=BLOCK
 -0.1332089E+01
TITLE = ""
VARIABLES = "F"
ZONE I=1,  F=BLOCK
 -0.1707694E+01
TITLE = ""
VARIABLES = "F"
ZONE I=1,  F=BLOCK
 -0.2093265E+01
TITLE = ""
VARIABLES = "F"
ZONE I=1,  F=BLOCK
 -0.2052262E+01
TITLE = ""
VARIABLES = "F"
ZONE I=1,  F=BLOCK
 -0.1588827E+01
TITLE = ""
VARIABLES = "F"
ZONE I=1,  F=BLOCK
 -0.1166915E+01
TITLE = ""
VARIABLES = "F"
ZONE I=1,  F=BLOCK
 -0.1043778E+01
TITLE = ""
VARIABLES = "F"
ZONE I=1,  F=BLOCK
 -0.1090548E+01
TITLE = ""
VARIABLES = "F"
ZONE I=1,  F=BLOCK
 -0.1132650E+01
TITLE = ""
VARIABLES = "F"
ZONE I=1,  F=BLOCK
 -0.1138874E+01
TITLE = ""
VARIABLES = "F"
ZONE I=1,  F=BLOCK
 -0.1161001E+01
TITLE = ""
VARIABLES = "F"
ZONE I=1,  F=BLOCK
 -0.1187152E+01
TITLE = ""
VARIABLES = "F"
ZONE I=1,  F=BLOCK
 -0.1161842E+01
TITLE = ""
VARIABLES = "F"
ZONE I=1,  F=BLOCK
 -0.1182960E+01
TITLE = ""
VARIABLES = "F"
ZONE I=1,  F=BLOCK
 -0.1359768E+01
TITLE = ""
VARIABLES = "F"
ZONE I=1,  F=BLOCK
 -0.1500009E+01
TITLE = ""
VARIABLES = "F"
ZONE I=1,  F=BLOCK
 -0.1401088E+01
TITLE = ""
VARIABLES = "F"
ZONE I=1,  F=BLOCK
 -0.1227070E+01
TITLE = ""
VARIABLES = "F"
ZONE I=1,  F=BLOCK
 -0.1170809E+01
TITLE = ""
VARIABLES = "F"
ZONE I=1,  F=BLOCK
 -0.1157777E+01
TITLE = ""
VARIABLES = "F"
ZONE I=1,  F=BLOCK
 -0.1114669E+01
TITLE = ""
VARIABLES = "F"
ZONE I=1,  F=BLOCK
 -0.1342127E+01
TITLE = ""
VARIABLES = "F"
ZONE I=1,  F=BLOCK
 -0.1321384E+01
TITLE = ""
VARIABLES = "F"
ZONE I=1,  F=BLOCK
 -0.1322116E+01
TITLE = ""
VARIABLES = "F"
ZONE I=1,  F=BLOCK
 -0.1364676E+01
TITLE = ""
VARIABLES = "F"
ZONE I=1,  F=BLOCK
 -0.1512269E+01
TITLE = ""
VARIABLES = "F"
ZONE I=1,  F=BLOCK
 -0.1868531E+01
TITLE = ""
VARIABLES = "F"
ZONE I=1,  F=BLOCK
 -0.2260970E+01
TITLE = ""
VARIABLES = "F"
ZONE I=1,  F=BLOCK
 -0.2254112E+01
TITLE = ""
VARIABLES = "F"
ZONE I=1,  F=BLOCK
 -0.1789099E+01
TITLE = ""
VARIABLES = "F"
ZONE I=1,  F=BLOCK
 -0.1329505E+01
TITLE = ""
VARIABLES = "F"
ZONE I=1,  F=BLOCK
 -0.1197008E+01
TITLE = ""
VARIABLES = "F"
ZONE I=1,  F=BLOCK
 -0.1265212E+01
TITLE = ""
VARIABLES = "F"
ZONE I=1,  F=BLOCK
 -0.1314380E+01
TITLE = ""
VARIABLES = "F"
ZONE I=1,  F=BLOCK
 -0.1309373E+01
TITLE = ""
VARIABLES = "F"
ZONE I=1,  F=BLOCK
 -0.1320771E+01
TITLE = ""
VARIABLES = "F"
ZONE I=1,  F=BLOCK
 -0.1339164E+01
TITLE = ""
VARIABLES = "F"
ZONE I=1,  F=BLOCK
 -0.1315984E+01
TITLE = ""
VARIABLES = "F"
ZONE I=1,  F=BLOCK
 -0.1352196E+01
TITLE = ""
VARIABLES = "F"
ZONE I=1,  F=BLOCK
 -0.1525796E+01
TITLE = ""
VARIABLES = "F"
ZONE I=1,  F=BLOCK
 -0.1636692E+01
TITLE = ""
VARIABLES = "F"
ZONE I=1,  F=BLOCK
 -0.1542603E+01
TITLE = ""
VARIABLES = "F"
ZONE I=1,  F=BLOCK
 -0.1428283E+01
TITLE = ""
VARIABLES = "F"
ZONE I=1,  F=BLOCK
 -0.1408087E+01
TITLE = ""
VARIABLES = "F"
ZONE I=1,  F=BLOCK
 -0.1354346E+01
TITLE = ""
VARIABLES = "F"
ZONE I=1,  F=BLOCK
 -0.1234346E+01
TITLE = ""
VARIABLES = "F"
ZONE I=1,  F=BLOCK
 -0.1578883E+01
TITLE = ""
VARIABLES = "F"
ZONE I=1,  F=BLOCK
 -0.1596402E+01
TITLE = ""
VARIABLES = "F"
ZONE I=1,  F=BLOCK
 -0.1595690E+01
TITLE = ""
VARIABLES = "F"
ZONE I=1,  F=BLOCK
 -0.1627124E+01
TITLE = ""
VARIABLES = "F"
ZONE I=1,  F=BLOCK
 -0.1757052E+01
TITLE = ""
VARIABLES = "F"
ZONE I=1,  F=BLOCK
 -0.2077818E+01
TITLE = ""
VARIABLES = "F"
ZONE I=1,  F=BLOCK
 -0.2451318E+01
TITLE = ""
VARIABLES = "F"
ZONE I=1,  F=BLOCK
 -0.2480605E+01
TITLE = ""
VARIABLES = "F"
ZONE I=1,  F=BLOCK
 -0.2075316E+01
TITLE = ""
VARIABLES = "F"
ZONE I=1,  F=BLOCK
 -0.1647200E+01
TITLE = ""
VARIABLES = "F"
ZONE I=1,  F=BLOCK
 -0.1511072E+01
TITLE = ""
VARIABLES = "F"
ZONE I=1,  F=BLOCK
 -0.1554896E+01
TITLE = ""
VARIABLES = "F"
ZONE I=1,  F=BLOCK
 -0.1572661E+01
TITLE = ""
VARIABLES = "F"
ZONE I=1,  F=BLOCK
 -0.1546346E+01
TITLE = ""
VARIABLES = "F"
ZONE I=1,  F=BLOCK
 -0.1554034E+01
TITLE = ""
VARIABLES = "F"
ZONE I=1,  F=BLOCK
 -0.1573628E+01
TITLE = ""
VARIABLES = "F"
ZONE I=1,  F=BLOCK
 -0.1545597E+01
TITLE = ""
VARIABLES = "F"
ZONE I=1,  F=BLOCK
 -0.1589028E+01
TITLE = ""
VARIABLES = "F"
ZONE I=1,  F=BLOCK
 -0.1789341E+01
TITLE = ""
VARIABLES = "F"
ZONE I=1,  F=BLOCK
 -0.1902718E+01
TITLE = ""
VARIABLES = "F"
ZONE I=1,  F=BLOCK
 -0.1770661E+01
TITLE = ""
VARIABLES = "F"
ZONE I=1,  F=BLOCK
 -0.1630020E+01
TITLE = ""
VARIABLES = "F"
ZONE I=1,  F=BLOCK
 -0.1619016E+01
TITLE = ""
VARIABLES = "F"
ZONE I=1,  F=BLOCK
 -0.1570721E+01
TITLE = ""
VARIABLES = "F"
ZONE I=1,  F=BLOCK
 -0.1418437E+01
TITLE = ""
VARIABLES = "F"
ZONE I=1,  F=BLOCK
 -0.1716176E+01
TITLE = ""
VARIABLES = "F"
ZONE I=1,  F=BLOCK
 -0.1783521E+01
TITLE = ""
VARIABLES = "F"
ZONE I=1,  F=BLOCK
 -0.1800932E+01
TITLE = ""
VARIABLES = "F"
ZONE I=1,  F=BLOCK
 -0.1828181E+01
TITLE = ""
VARIABLES = "F"
ZONE I=1,  F=BLOCK
 -0.1947107E+01
TITLE = ""
VARIABLES = "F"
ZONE I=1,  F=BLOCK
 -0.2238777E+01
TITLE = ""
VARIABLES = "F"
ZONE I=1,  F=BLOCK
 -0.2569561E+01
TITLE = ""
VARIABLES = "F"
ZONE I=1,  F=BLOCK
 -0.2597202E+01
TITLE = ""
VARIABLES = "F"
ZONE I=1,  F=BLOCK
 -0.2257568E+01
TITLE = ""
VARIABLES = "F"
ZONE I=1,  F=BLOCK
 -0.1900098E+01
TITLE = ""
VARIABLES = "F"
ZONE I=1,  F=BLOCK
 -0.1773148E+01
TITLE = ""
VARIABLES = "F"
ZONE I=1,  F=BLOCK
 -0.1781199E+01
TITLE = ""
VARIABLES = "F"
ZONE I=1,  F=BLOCK
 -0.1768019E+01
TITLE = ""
VARIABLES = "F"
ZONE I=1,  F=BLOCK
 -0.1726639E+01
TITLE = ""
VARIABLES = "F"
ZONE I=1,  F=BLOCK
 -0.1734655E+01
TITLE = ""
VARIABLES = "F"
ZONE I=1,  F=BLOCK
 -0.1772609E+01
TITLE = ""
VARIABLES = "F"
ZONE I=1,  F=BLOCK
 -0.1743728E+01
TITLE = ""
VARIABLES = "F"
ZONE I=1,  F=BLOCK
 -0.1751410E+01
TITLE = ""
VARIABLES = "F"
ZONE I=1,  F=BLOCK
 -0.1944415E+01
TITLE = ""
VARIABLES = "F"
ZONE I=1,  F=BLOCK
 -0.2089847E+01
TITLE = ""
VARIABLES = "F"
ZONE I=1,  F=BLOCK
 -0.1952573E+01
TITLE = ""
VARIABLES = "F"
ZONE I=1,  F=BLOCK
 -0.1767761E+01
TITLE = ""
VARIABLES = "F"
ZONE I=1,  F=BLOCK
 -0.1751675E+01
TITLE = ""
VARIABLES = "F"
ZONE I=1,  F=BLOCK
 -0.1744990E+01
TITLE = ""
VARIABLES = "F"
ZONE I=1,  F=BLOCK
 -0.1609502E+01
TITLE = ""
VARIABLES = "F"
ZONE I=1,  F=BLOCK
 -0.1655103E+01
TITLE = ""
VARIABLES = "F"
ZONE I=1,  F=BLOCK
 -0.1741423E+01
TITLE = ""
VARIABLES = "F"
ZONE I=1,  F=BLOCK
 -0.1775165E+01
TITLE = ""
VARIABLES = "F"
ZONE I=1,  F=BLOCK
 -0.1808470E+01
TITLE = ""
VARIABLES = "F"
ZONE I=1,  F=BLOCK
 -0.1944141E+01
TITLE = ""
VARIABLES = "F"
ZONE I=1,  F=BLOCK
 -0.2252610E+01
TITLE = ""
VARIABLES = "F"
ZONE I=1,  F=BLOCK
 -0.2560188E+01
TITLE = ""
VARIABLES = "F"
ZONE I=1,  F=BLOCK
 -0.2545098E+01
TITLE = ""
VARIABLES = "F"
ZONE I=1,  F=BLOCK
 -0.2206229E+01
TITLE = ""
VARIABLES = "F"
ZONE I=1,  F=BLOCK
 -0.1882394E+01
TITLE = ""
VARIABLES = "F"
ZONE I=1,  F=BLOCK
 -0.1764895E+01
TITLE = ""
VARIABLES = "F"
ZONE I=1,  F=BLOCK
 -0.1766281E+01
TITLE = ""
VARIABLES = "F"
ZONE I=1,  F=BLOCK
 -0.1761760E+01
TITLE = ""
VARIABLES = "F"
ZONE I=1,  F=BLOCK
 -0.1721057E+01
TITLE = ""
VARIABLES = "F"
ZONE I=1,  F=BLOCK
 -0.1715807E+01
TITLE = ""
VARIABLES = "F"
ZONE I=1,  F=BLOCK
 -0.1768718E+01
TITLE = ""
VARIABLES = "F"
ZONE I=1,  F=BLOCK
 -0.1757498E+01
TITLE = ""
VARIABLES = "F"
ZONE I=1,  F=BLOCK
 -0.1725791E+01
TITLE = ""
VARIABLES = "F"
ZONE I=1,  F=BLOCK
 -0.1880017E+01
TITLE = ""
VARIABLES = "F"
ZONE I=1,  F=BLOCK
 -0.2058909E+01
TITLE = ""
VARIABLES = "F"
ZONE I=1,  F=BLOCK
 -0.1961376E+01
TITLE = ""
VARIABLES = "F"
ZONE I=1,  F=BLOCK
 -0.1759863E+01
TITLE = ""
VARIABLES = "F"
ZONE I=1,  F=BLOCK
 -0.1730687E+01
TITLE = ""
VARIABLES = "F"
ZONE I=1,  F=BLOCK
 -0.1765888E+01
TITLE = ""
VARIABLES = "F"
ZONE I=1,  F=BLOCK
 -0.1680543E+01
TITLE = ""
VARIABLES = "F"
ZONE I=1,  F=BLOCK
 -0.1456664E+01
TITLE = ""
VARIABLES = "F"
ZONE I=1,  F=BLOCK
 -0.1517488E+01
TITLE = ""
VARIABLES = "F"
ZONE I=1,  F=BLOCK
 -0.1544430E+01
TITLE = ""
VARIABLES = "F"
ZONE I=1,  F=BLOCK
 -0.1578885E+01
TITLE = ""
VARIABLES = "F"
ZONE I=1,  F=BLOCK
 -0.1745146E+01
TITLE = ""
VARIABLES = "F"
ZONE I=1,  F=BLOCK
 -0.2112011E+01
TITLE = ""
VARIABLES = "F"
ZONE I=1,  F=BLOCK
 -0.2445687E+01
TITLE = ""
VARIABLES = "F"
ZONE I=1,  F=BLOCK
 -0.2391895E+01
TITLE = ""
VARIABLES = "F"
ZONE I=1,  F=BLOCK
 -0.1999797E+01
TITLE = ""
VARIABLES = "F"
ZONE I=1,  F=BLOCK
 -0.1652202E+01
TITLE = ""
VARIABLES = "F"
ZONE I=1,  F=BLOCK
 -0.1528721E+01
TITLE = ""
VARIABLES = "F"
ZONE I=1,  F=BLOCK
 -0.1537756E+01
TITLE = ""
VARIABLES = "F"
ZONE I=1,  F=BLOCK
 -0.1558540E+01
TITLE = ""
VARIABLES = "F"
ZONE I=1,  F=BLOCK
 -0.1528241E+01
TITLE = ""
VARIABLES = "F"
ZONE I=1,  F=BLOCK
 -0.1501464E+01
TITLE = ""
VARIABLES = "F"
ZONE I=1,  F=BLOCK
 -0.1545461E+01
TITLE = ""
VARIABLES = "F"
ZONE I=1,  F=BLOCK
 -0.1563408E+01
TITLE = ""
VARIABLES = "F"
ZONE I=1,  F=BLOCK
 -0.1559357E+01
TITLE = ""
VARIABLES = "F"
ZONE I=1,  F=BLOCK
 -0.1719514E+01
TITLE = ""
VARIABLES = "F"
ZONE I=1,  F=BLOCK
 -0.1905489E+01
TITLE = ""
VARIABLES = "F"
ZONE I=1,  F=BLOCK
 -0.1808550E+01
TITLE = ""
VARIABLES = "F"
ZONE I=1,  F=BLOCK
 -0.1578880E+01
TITLE = ""
VARIABLES = "F"
ZONE I=1,  F=BLOCK
 -0.1523644E+01
TITLE = ""
VARIABLES = "F"
ZONE I=1,  F=BLOCK
 -0.1581668E+01
TITLE = ""
VARIABLES = "F"
ZONE I=1,  F=BLOCK
 -0.1561006E+01
TITLE = ""
VARIABLES = "F"
ZONE I=1,  F=BLOCK
 -0.1253885E+01
TITLE = ""
VARIABLES = "F"
ZONE I=1,  F=BLOCK
 -0.1271238E+01
TITLE = ""
VARIABLES = "F"
ZONE I=1,  F=BLOCK
 -0.1274651E+01
TITLE = ""
VARIABLES = "F"
ZONE I=1,  F=BLOCK
 -0.1291566E+01
TITLE = ""
VARIABLES = "F"
ZONE I=1,  F=BLOCK
 -0.1458370E+01
TITLE = ""
VARIABLES = "F"
ZONE I=1,  F=BLOCK
 -0.1859516E+01
TITLE = ""
VARIABLES = "F"
ZONE I=1,  F=BLOCK
 -0.2228038E+01
TITLE = ""
VARIABLES = "F"
ZONE I=1,  F=BLOCK
 -0.2161305E+01
TITLE = ""
VARIABLES = "F"
ZONE I=1,  F=BLOCK
 -0.1725608E+01
TITLE = ""
VARIABLES = "F"
ZONE I=1,  F=BLOCK
 -0.1356915E+01
TITLE = ""
VARIABLES = "F"
ZONE I=1,  F=BLOCK
 -0.1239859E+01
TITLE = ""
VARIABLES = "F"
ZONE I=1,  F=BLOCK
 -0.1255846E+01
TITLE = ""
VARIABLES = "F"
ZONE I=1,  F=BLOCK
 -0.1281544E+01
TITLE = ""
VARIABLES = "F"
ZONE I=1,  F=BLOCK
 -0.1259845E+01
TITLE = ""
VARIABLES = "F"
ZONE I=1,  F=BLOCK
 -0.1223239E+01
TITLE = ""
VARIABLES = "F"
ZONE I=1,  F=BLOCK
 -0.1230981E+01
TITLE = ""
VARIABLES = "F"
ZONE I=1,  F=BLOCK
 -0.1242061E+01
TITLE = ""
VARIABLES = "F"
ZONE I=1,  F=BLOCK
 -0.1296658E+01
TITLE = ""
VARIABLES = "F"
ZONE I=1,  F=BLOCK
 -0.1512162E+01
TITLE = ""
VARIABLES = "F"
ZONE I=1,  F=BLOCK
 -0.1683594E+01
TITLE = ""
VARIABLES = "F"
ZONE I=1,  F=BLOCK
 -0.1538947E+01
TITLE = ""
VARIABLES = "F"
ZONE I=1,  F=BLOCK
 -0.1280656E+01
TITLE = ""
VARIABLES = "F"
ZONE I=1,  F=BLOCK
 -0.1215851E+01
TITLE = ""
VARIABLES = "F"
ZONE I=1,  F=BLOCK
 -0.1286795E+01
TITLE = ""
VARIABLES = "F"
ZONE I=1,  F=BLOCK
 -0.1322964E+01
TITLE = ""
VARIABLES = "F"
ZONE I=1,  F=BLOCK
 -0.1115327E+01
TITLE = ""
VARIABLES = "F"
ZONE I=1,  F=BLOCK
 -0.1102679E+01
TITLE = ""
VARIABLES = "F"
ZONE I=1,  F=BLOCK
 -0.1093466E+01
TITLE = ""
VARIABLES = "F"
ZONE I=1,  F=BLOCK
 -0.1095877E+01
TITLE = ""
VARIABLES = "F"
ZONE I=1,  F=BLOCK
 -0.1242373E+01
TITLE = ""
VARIABLES = "F"
ZONE I=1,  F=BLOCK
 -0.1637117E+01
TITLE = ""
VARIABLES = "F"
ZONE I=1,  F=BLOCK
 -0.2013589E+01
TITLE = ""
VARIABLES = "F"
ZONE I=1,  F=BLOCK
 -0.1941685E+01
TITLE = ""
VARIABLES = "F"
ZONE I=1,  F=BLOCK
 -0.1489165E+01
TITLE = ""
VARIABLES = "F"
ZONE I=1,  F=BLOCK
 -0.1126640E+01
TITLE = ""
VARIABLES = "F"
ZONE I=1,  F=BLOCK
 -0.1036878E+01
TITLE = ""
VARIABLES = "F"
ZONE I=1,  F=BLOCK
 -0.1060435E+01
TITLE = ""
VARIABLES = "F"
ZONE I=1,  F=BLOCK
 -0.1074237E+01
TITLE = ""
VARIABLES = "F"
ZONE I=1,  F=BLOCK
 -0.1063320E+01
TITLE = ""
VARIABLES = "F"
ZONE I=1,  F=BLOCK
 -0.1045495E+01
TITLE = ""
VARIABLES = "F"
ZONE I=1,  F=BLOCK
 -0.1022676E+01
TITLE = ""
VARIABLES = "F"
ZONE I=1,  F=BLOCK
 -0.9874724E+00
TITLE = ""
VARIABLES = "F"
ZONE I=1,  F=BLOCK
 -0.1057270E+01
TITLE = ""
VARIABLES = "F"
ZONE I=1,  F=BLOCK
 -0.1307502E+01
TITLE = ""
VARIABLES = "F"
ZONE I=1,  F=BLOCK
 -0.1459898E+01
TITLE = ""
VARIABLES = "F"
ZONE I=1,  F=BLOCK
 -0.1288192E+01
TITLE = ""
VARIABLES = "F"
ZONE I=1,  F=BLOCK
 -0.1047796E+01
TITLE = ""
VARIABLES = "F"
ZONE I=1,  F=BLOCK
 -0.1005120E+01
TITLE = ""
VARIABLES = "F"
ZONE I=1,  F=BLOCK
 -0.1075498E+01
TITLE = ""
VARIABLES = "F"
ZONE I=1,  F=BLOCK
 -0.1129412E+01
TITLE = ""
VARIABLES = "F"
ZONE I=1,  F=BLOCK
 -0.1037753E+01
TITLE = ""
VARIABLES = "F"
ZONE I=1,  F=BLOCK
 -0.1017660E+01
TITLE = ""
VARIABLES = "F"
ZONE I=1,  F=BLOCK
 -0.1020385E+01
TITLE = ""
VARIABLES = "F"
ZONE I=1,  F=BLOCK
 -0.1038122E+01
TITLE = ""
VARIABLES = "F"
ZONE I=1,  F=BLOCK
 -0.1189294E+01
TITLE = ""
VARIABLES = "F"
ZONE I=1,  F=BLOCK
 -0.1581123E+01
TITLE = ""
VARIABLES = "F"
ZONE I=1,  F=BLOCK
 -0.1954402E+01
TITLE = ""
VARIABLES = "F"
ZONE I=1,  F=BLOCK
 -0.1876746E+01
TITLE = ""
VARIABLES = "F"
ZONE I=1,  F=BLOCK
 -0.1416058E+01
TITLE = ""
VARIABLES = "F"
ZONE I=1,  F=BLOCK
 -0.1055437E+01
TITLE = ""
VARIABLES = "F"
ZONE I=1,  F=BLOCK
 -0.9766347E+00
TITLE = ""
VARIABLES = "F"
ZONE I=1,  F=BLOCK
 -0.9957562E+00
TITLE = ""
VARIABLES = "F"
ZONE I=1,  F=BLOCK
 -0.9944054E+00
TITLE = ""
VARIABLES = "F"
ZONE I=1,  F=BLOCK
 -0.1001083E+01
TITLE = ""
VARIABLES = "F"
ZONE I=1,  F=BLOCK
 -0.1028899E+01
TITLE = ""
VARIABLES = "F"
ZONE I=1,  F=BLOCK
 -0.1016891E+01
TITLE = ""
VARIABLES = "F"
ZONE I=1,  F=BLOCK
 -0.9515583E+00
TITLE = ""
VARIABLES = "F"
ZONE I=1,  F=BLOCK
 -0.1002560E+01
TITLE = ""
VARIABLES = "F"
ZONE I=1,  F=BLOCK
 -0.1244030E+01
TITLE = ""
VARIABLES = "F"
ZONE I=1,  F=BLOCK
 -0.1377567E+01
TITLE = ""
VARIABLES = "F"
ZONE I=1,  F=BLOCK
 -0.1211962E+01
TITLE = ""
VARIABLES = "F"
ZONE I=1,  F=BLOCK
 -0.1010997E+01
TITLE = ""
VARIABLES = "F"
ZONE I=1,  F=BLOCK
 -0.9865523E+00
TITLE = ""
VARIABLES = "F"
ZONE I=1,  F=BLOCK
 -0.1034054E+01
TITLE = ""
VARIABLES = "F"
ZONE I=1,  F=BLOCK
 -0.1065455E+01
TITLE = ""
VARIABLES = "F"
ZONE I=1,  F=BLOCK
 -0.1007501E+01
TITLE = ""
VARIABLES = "F"
ZONE I=1,  F=BLOCK
 -0.9898033E+00
TITLE = ""
VARIABLES = "F"
ZONE I=1,  F=BLOCK
 -0.1006669E+01
TITLE = ""
VARIABLES = "F"
ZONE I=1,  F=BLOCK
 -0.1044360E+01
TITLE = ""
VARIABLES = "F"
ZONE I=1,  F=BLOCK
 -0.1209776E+01
TITLE = ""
VARIABLES = "F"
ZONE I=1,  F=BLOCK
 -0.1601069E+01
TITLE = ""
VARIABLES = "F"
ZONE I=1,  F=BLOCK
 -0.1967846E+01
TITLE = ""
VARIABLES = "F"
ZONE I=1,  F=BLOCK
 -0.1892797E+01
TITLE = ""
VARIABLES = "F"
ZONE I=1,  F=BLOCK