VARIABLES = "x" "y" "z"
ZONE I=2 J=2 K=2 F=BLOCK
  0.0000000E+00  0.4000000E+01  0.2000000E+01  0.6000000E+01  0.1000000E+01  0.5000000E+01
  0.3000000E+01  0.7000000E+01
 -0.0000000E+00 -0.4000000E+01 -0.2000000E+01 -0.6000000E+01 -0.1000000E+01 -0.5000000E+01
 -0.3000000E+01 -0.7000000E+01
  0.0000000E+00  0.3200000E+02  0.1600000E+02  0.4800000E+02  0.8000000E+01  0.4000000E+02
  0.2400000E+02  0.5600000E+02
