TITLE = ""
VARIABLES = "F"
ZONE I=1,  F=BLOCK
 -0.1221820E+01
TITLE = ""
VARIABLES = "F"
ZONE I=1,  F=BLOCK
 -0.1148024E+01
TITLE = ""
VARIABLES = "F"
ZONE I=1,  F=BLOCK
 -0.1083310E+01
TITLE = ""
VARIABLES = "F"
ZONE I=1,  F=BLOCK
 -0.1098442E+01
TITLE = ""
VARIABLES = "F"
ZONE I=1,  F=BLOCK
 -0.1268583E+01
TITLE = ""
VARIABLES = "F"
ZONE I=1,  F=BLOCK
 -0.1579940E+01
TITLE = ""
VARIABLES = "F"
ZONE I=1,  F=BLOCK
 -0.1854466E+01
TITLE = ""
VARIABLES = "F"
ZONE I=1,  F=BLOCK
 -0.1856370E+01
TITLE = ""
VARIABLES = "F"
ZONE I=1,  F=BLOCK
 -0.1544343E+01
TITLE = ""
VARIABLES = "F"
ZONE I=1,  F=BLOCK
 -0.1146952E+01
TITLE = ""
VARIABLES = "F"
ZONE I=1,  F=BLOCK
 -0.9240284E+00
TITLE = ""
VARIABLES = "F"
ZONE I=1,  F=BLOCK
 -0.9192492E+00
TITLE = ""
VARIABLES = "F"
ZONE I=1,  F=BLOCK
 -0.9952667E+00
TITLE = ""
VARIABLES = "F"
ZONE I=1,  F=BLOCK
 -0.1035832E+01
TITLE = ""
VARIABLES = "F"
ZONE I=1,  F=BLOCK
 -0.1034163E+01
TITLE = ""
VARIABLES = "F"
ZONE I=1,  F=BLOCK
 -0.1028869E+01
TITLE = ""
VARIABLES = "F"
ZONE I=1,  F=BLOCK
 -0.1055038E+01
TITLE = ""
VARIABLES = "F"
ZONE I=1,  F=BLOCK
 -0.1147497E+01
TITLE = ""
VARIABLES = "F"
ZONE I=1,  F=BLOCK
 -0.1295756E+01
TITLE = ""
VARIABLES = "F"
ZONE I=1,  F=BLOCK
 -0.1400892E+01
TITLE = ""
VARIABLES = "F"
ZONE I=1,  F=BLOCK
 -0.1362222E+01
TITLE = ""
VARIABLES = "F"
ZONE I=1,  F=BLOCK
 -0.1204131E+01
TITLE = ""
VARIABLES = "F"
ZONE I=1,  F=BLOCK
 -0.1058559E+01
TITLE = ""
VARIABLES = "F"
ZONE I=1,  F=BLOCK
 -0.1027019E+01
TITLE = ""
VARIABLES = "F"
ZONE I=1,  F=BLOCK
 -0.1098492E+01
TITLE = ""
VARIABLES = "F"
ZONE I=1,  F=BLOCK
 -0.1195246E+01
TITLE = ""
VARIABLES = "F"
ZONE I=1,  F=BLOCK
 -0.1106344E+01
TITLE = ""
VARIABLES = "F"
ZONE I=1,  F=BLOCK
 -0.1024812E+01
TITLE = ""
VARIABLES = "F"
ZONE I=1,  F=BLOCK
 -0.1025056E+01
TITLE = ""
VARIABLES = "F"
ZONE I=1,  F=BLOCK
 -0.1203014E+01
TITLE = ""
VARIABLES = "F"
ZONE I=1,  F=BLOCK
 -0.1573101E+01
TITLE = ""
VARIABLES = "F"
ZONE I=1,  F=BLOCK
 -0.1943986E+01
TITLE = ""
VARIABLES = "F"
ZONE I=1,  F=BLOCK
 -0.2014443E+01
TITLE = ""
VARIABLES = "F"
ZONE I=1,  F=BLOCK
 -0.1698554E+01
TITLE = ""
VARIABLES = "F"
ZONE I=1,  F=BLOCK
 -0.1250616E+01
TITLE = ""
VARIABLES = "F"
ZONE I=1,  F=BLOCK
 -0.9769278E+00
TITLE = ""
VARIABLES = "F"
ZONE I=1,  F=BLOCK
 -0.9327956E+00
TITLE = ""
VARIABLES = "F"
ZONE I=1,  F=BLOCK
 -0.9740733E+00
TITLE = ""
VARIABLES = "F"
ZONE I=1,  F=BLOCK
 -0.9903118E+00
TITLE = ""
VARIABLES = "F"
ZONE I=1,  F=BLOCK
 -0.9785256E+00
TITLE = ""
VARIABLES = "F"
ZONE I=1,  F=BLOCK
 -0.9605992E+00
TITLE = ""
VARIABLES = "F"
ZONE I=1,  F=BLOCK
 -0.9664312E+00
TITLE = ""
VARIABLES = "F"
ZONE I=1,  F=BLOCK
 -0.1063788E+01
TITLE = ""
VARIABLES = "F"
ZONE I=1,  F=BLOCK
 -0.1262944E+01
TITLE = ""
VARIABLES = "F"
ZONE I=1,  F=BLOCK
 -0.1424896E+01
TITLE = ""
VARIABLES = "F"
ZONE I=1,  F=BLOCK
 -0.1397297E+01
TITLE = ""
VARIABLES = "F"
ZONE I=1,  F=BLOCK
 -0.1209481E+01
TITLE = ""
VARIABLES = "F"
ZONE I=1,  F=BLOCK
 -0.1036259E+01
TITLE = ""
VARIABLES = "F"
ZONE I=1,  F=BLOCK
 -0.1001673E+01
TITLE = ""
VARIABLES = "F"
ZONE I=1,  F=BLOCK
 -0.1084850E+01
TITLE = ""
VARIABLES = "F"
ZONE I=1,  F=BLOCK
 -0.1178367E+01
TITLE = ""
VARIABLES = "F"
ZONE I=1,  F=BLOCK
 -0.1094951E+01
TITLE = ""
VARIABLES = "F"
ZONE I=1,  F=BLOCK
 -0.1020768E+01
TITLE = ""
VARIABLES = "F"
ZONE I=1,  F=BLOCK
 -0.1014565E+01
TITLE = ""
VARIABLES = "F"
ZONE I=1,  F=BLOCK
 -0.1177042E+01
TITLE = ""
VARIABLES = "F"
ZONE I=1,  F=BLOCK
 -0.1554535E+01
TITLE = ""
VARIABLES = "F"
ZONE I=1,  F=BLOCK
 -0.1966180E+01
TITLE = ""
VARIABLES = "F"
ZONE I=1,  F=BLOCK
 -0.2076374E+01
TITLE = ""
VARIABLES = "F"
ZONE I=1,  F=BLOCK
 -0.1773516E+01
TITLE = ""
VARIABLES = "F"
ZONE I=1,  F=BLOCK
 -0.1325700E+01
TITLE = ""
VARIABLES = "F"
ZONE I=1,  F=BLOCK
 -0.1050629E+01
TITLE = ""
VARIABLES = "F"
ZONE I=1,  F=BLOCK
 -0.9939168E+00
TITLE = ""
VARIABLES = "F"
ZONE I=1,  F=BLOCK
 -0.1014037E+01
TITLE = ""
VARIABLES = "F"
ZONE I=1,  F=BLOCK
 -0.1020600E+01
TITLE = ""
VARIABLES = "F"
ZONE I=1,  F=BLOCK
 -0.1009994E+01
TITLE = ""
VARIABLES = "F"
ZONE I=1,  F=BLOCK
 -0.9759394E+00
TITLE = ""
VARIABLES = "F"
ZONE I=1,  F=BLOCK
 -0.9435024E+00
TITLE = ""
VARIABLES = "F"
ZONE I=1,  F=BLOCK
 -0.1022366E+01
TITLE = ""
VARIABLES = "F"
ZONE I=1,  F=BLOCK
 -0.1249442E+01
TITLE = ""
VARIABLES = "F"
ZONE I=1,  F=BLOCK
 -0.1449913E+01
TITLE = ""
VARIABLES = "F"
ZONE I=1,  F=BLOCK
 -0.1429463E+01
TITLE = ""
VARIABLES = "F"
ZONE I=1,  F=BLOCK
 -0.1228762E+01
TITLE = ""
VARIABLES = "F"
ZONE I=1,  F=BLOCK
 -0.1053218E+01
TITLE = ""
VARIABLES = "F"
ZONE I=1,  F=BLOCK
 -0.1027118E+01
TITLE = ""
VARIABLES = "F"
ZONE I=1,  F=BLOCK
 -0.1112491E+01
TITLE = ""
VARIABLES = "F"
ZONE I=1,  F=BLOCK
 -0.1158238E+01
TITLE = ""
VARIABLES = "F"
ZONE I=1,  F=BLOCK
 -0.1091254E+01
TITLE = ""
VARIABLES = "F"
ZONE I=1,  F=BLOCK
 -0.1040633E+01
TITLE = ""
VARIABLES = "F"
ZONE I=1,  F=BLOCK
 -0.1040194E+01
TITLE = ""
VARIABLES = "F"
ZONE I=1,  F=BLOCK
 -0.1183721E+01
TITLE = ""
VARIABLES = "F"
ZONE I=1,  F=BLOCK
 -0.1537484E+01
TITLE = ""
VARIABLES = "F"
ZONE I=1,  F=BLOCK
 -0.1927885E+01
TITLE = ""
VARIABLES = "F"
ZONE I=1,  F=BLOCK
 -0.2008250E+01
TITLE = ""
VARIABLES = "F"
ZONE I=1,  F=BLOCK
 -0.1683242E+01
TITLE = ""
VARIABLES = "F"
ZONE I=1,  F=BLOCK
 -0.1254065E+01
TITLE = ""
VARIABLES = "F"
ZONE I=1,  F=BLOCK
 -0.1028777E+01
TITLE = ""
VARIABLES = "F"
ZONE I=1,  F=BLOCK
 -0.1012414E+01
TITLE = ""
VARIABLES = "F"
ZONE I=1,  F=BLOCK
 -0.1051351E+01
TITLE = ""
VARIABLES = "F"
ZONE I=1,  F=BLOCK
 -0.1069975E+01
TITLE = ""
VARIABLES = "F"
ZONE I=1,  F=BLOCK
 -0.1063283E+01
TITLE = ""
VARIABLES = "F"
ZONE I=1,  F=BLOCK
 -0.1007056E+01
TITLE = ""
VARIABLES = "F"
ZONE I=1,  F=BLOCK
 -0.9312784E+00
TITLE = ""
VARIABLES = "F"
ZONE I=1,  F=BLOCK
 -0.9798367E+00
TITLE = ""
VARIABLES = "F"
ZONE I=1,  F=BLOCK
 -0.1205685E+01
TITLE = ""
VARIABLES = "F"
ZONE I=1,  F=BLOCK
 -0.1409912E+01
TITLE = ""
VARIABLES = "F"
ZONE I=1,  F=BLOCK
 -0.1382554E+01
TITLE = ""
VARIABLES = "F"
ZONE I=1,  F=BLOCK
 -0.1186181E+01
TITLE = ""
VARIABLES = "F"
ZONE I=1,  F=BLOCK
 -0.1040222E+01
TITLE = ""
VARIABLES = "F"
ZONE I=1,  F=BLOCK
 -0.1045586E+01
TITLE = ""
VARIABLES = "F"
ZONE I=1,  F=BLOCK
 -0.1139858E+01
TITLE = ""
VARIABLES = "F"
ZONE I=1,  F=BLOCK
 -0.1121626E+01
TITLE = ""
VARIABLES = "F"
ZONE I=1,  F=BLOCK
 -0.1066050E+01
TITLE = ""
VARIABLES = "F"
ZONE I=1,  F=BLOCK
 -0.1037440E+01
TITLE = ""
VARIABLES = "F"
ZONE I=1,  F=BLOCK
 -0.1049502E+01
TITLE = ""
VARIABLES = "F"
ZONE I=1,  F=BLOCK
 -0.1188771E+01
TITLE = ""
VARIABLES = "F"
ZONE I=1,  F=BLOCK
 -0.1525188E+01
TITLE = ""
VARIABLES = "F"
ZONE I=1,  F=BLOCK
 -0.1871686E+01
TITLE = ""
VARIABLES = "F"
ZONE I=1,  F=BLOCK
 -0.1875066E+01
TITLE = ""
VARIABLES = "F"
ZONE I=1,  F=BLOCK
 -0.1487029E+01
TITLE = ""
VARIABLES = "F"
ZONE I=1,  F=BLOCK
 -0.1064803E+01
TITLE = ""
VARIABLES = "F"
ZONE I=1,  F=BLOCK
 -0.9040515E+00
TITLE = ""
VARIABLES = "F"
ZONE I=1,  F=BLOCK
 -0.9541652E+00
TITLE = ""
VARIABLES = "F"
ZONE I=1,  F=BLOCK
 -0.1034137E+01
TITLE = ""
VARIABLES = "F"
ZONE I=1,  F=BLOCK
 -0.1071815E+01
TITLE = ""
VARIABLES = "F"
ZONE I=1,  F=BLOCK
 -0.1064138E+01
TITLE = ""
VARIABLES = "F"
ZONE I=1,  F=BLOCK
 -0.9874614E+00
TITLE = ""
VARIABLES = "F"
ZONE I=1,  F=BLOCK
 -0.8833110E+00
TITLE = ""
VARIABLES = "F"
ZONE I=1,  F=BLOCK
 -0.9089395E+00
TITLE = ""
VARIABLES = "F"
ZONE I=1,  F=BLOCK
 -0.1115896E+01
TITLE = ""
VARIABLES = "F"
ZONE I=1,  F=BLOCK
 -0.1296711E+01
TITLE = ""
VARIABLES = "F"
ZONE I=1,  F=BLOCK
 -0.1252813E+01
TITLE = ""
VARIABLES = "F"
ZONE I=1,  F=BLOCK
 -0.1072525E+01
TITLE = ""
VARIABLES = "F"
ZONE I=1,  F=BLOCK
 -0.9733231E+00
TITLE = ""
VARIABLES = "F"
ZONE I=1,  F=BLOCK
 -0.1021931E+01
TITLE = ""
VARIABLES = "F"
ZONE I=1,  F=BLOCK
 -0.1133549E+01
TITLE = ""
VARIABLES = "F"
ZONE I=1,  F=BLOCK
 -0.1078899E+01
TITLE = ""
VARIABLES = "F"
ZONE I=1,  F=BLOCK
 -0.1027603E+01
TITLE = ""
VARIABLES = "F"
ZONE I=1,  F=BLOCK
 -0.1013875E+01
TITLE = ""
VARIABLES = "F"
ZONE I=1,  F=BLOCK
 -0.1043398E+01
TITLE = ""
VARIABLES = "F"
ZONE I=1,  F=BLOCK
 -0.1203244E+01
TITLE = ""
VARIABLES = "F"
ZONE I=1,  F=BLOCK
 -0.1557254E+01
TITLE = ""
VARIABLES = "F"
ZONE I=1,  F=BLOCK
 -0.1887336E+01
TITLE = ""
VARIABLES = "F"
ZONE I=1,  F=BLOCK
 -0.1825437E+01
TITLE = ""
VARIABLES = "F"
ZONE I=1,  F=BLOCK
 -0.1367858E+01
TITLE = ""
VARIABLES = "F"
ZONE I=1,  F=BLOCK
 -0.9259867E+00
TITLE = ""
VARIABLES = "F"
ZONE I=1,  F=BLOCK
 -0.7917332E+00
TITLE = ""
VARIABLES = "F"
ZONE I=1,  F=BLOCK
 -0.8770756E+00
TITLE = ""
VARIABLES = "F"
ZONE I=1,  F=BLOCK
 -0.9833627E+00
TITLE = ""
VARIABLES = "F"
ZONE I=1,  F=BLOCK
 -0.1038698E+01
TITLE = ""
VARIABLES = "F"
ZONE I=1,  F=BLOCK
 -0.1039849E+01
TITLE = ""
VARIABLES = "F"
ZONE I=1,  F=BLOCK
 -0.9667744E+00
TITLE = ""
VARIABLES = "F"
ZONE I=1,  F=BLOCK
 -0.8660013E+00
TITLE = ""
VARIABLES = "F"
ZONE I=1,  F=BLOCK
 -0.8882583E+00
TITLE = ""
VARIABLES = "F"
ZONE I=1,  F=BLOCK
 -0.1074330E+01
TITLE = ""
VARIABLES = "F"
ZONE I=1,  F=BLOCK
 -0.1222995E+01
TITLE = ""
VARIABLES = "F"
ZONE I=1,  F=BLOCK
 -0.1160299E+01
TITLE = ""
VARIABLES = "F"
ZONE I=1,  F=BLOCK
 -0.9905354E+00
TITLE = ""
VARIABLES = "F"
ZONE I=1,  F=BLOCK
 -0.9173593E+00
TITLE = ""
VARIABLES = "F"
ZONE I=1,  F=BLOCK
 -0.9825238E+00
TITLE = ""
VARIABLES = "F"
ZONE I=1,  F=BLOCK
 -0.1096679E+01
TITLE = ""
VARIABLES = "F"
ZONE I=1,  F=BLOCK
 -0.1051775E+01
TITLE = ""
VARIABLES = "F"
ZONE I=1,  F=BLOCK
 -0.1002451E+01
TITLE = ""
VARIABLES = "F"
ZONE I=1,  F=BLOCK
 -0.9938512E+00
TITLE = ""
VARIABLES = "F"
ZONE I=1,  F=BLOCK
 -0.1035146E+01
TITLE = ""
VARIABLES = "F"
ZONE I=1,  F=BLOCK
 -0.1223536E+01
TITLE = ""
VARIABLES = "F"
ZONE I=1,  F=BLOCK
 -0.1615231E+01
TITLE = ""
VARIABLES = "F"
ZONE I=1,  F=BLOCK
 -0.1960652E+01
TITLE = ""
VARIABLES = "F"
ZONE I=1,  F=BLOCK
 -0.1878014E+01
TITLE = ""
VARIABLES = "F"
ZONE I=1,  F=BLOCK
 -0.1389242E+01
TITLE = ""
VARIABLES = "F"
ZONE I=1,  F=BLOCK
 -0.9288928E+00
TITLE = ""
VARIABLES = "F"
ZONE I=1,  F=BLOCK
 -0.7818446E+00
TITLE = ""
VARIABLES = "F"
ZONE I=1,  F=BLOCK
 -0.8529531E+00
TITLE = ""
VARIABLES = "F"
ZONE I=1,  F=BLOCK
 -0.9554080E+00
TITLE = ""
VARIABLES = "F"
ZONE I=1,  F=BLOCK
 -0.1025558E+01
TITLE = ""
VARIABLES = "F"
ZONE I=1,  F=BLOCK
 -0.1053558E+01
TITLE = ""
VARIABLES = "F"
ZONE I=1,  F=BLOCK
 -0.1011642E+01
TITLE = ""
VARIABLES = "F"
ZONE I=1,  F=BLOCK
 -0.9375595E+00
TITLE = ""
VARIABLES = "F"
ZONE I=1,  F=BLOCK
 -0.9647921E+00
TITLE = ""
VARIABLES = "F"
ZONE I=1,  F=BLOCK
 -0.1127375E+01
TITLE = ""
VARIABLES = "F"
ZONE I=1,  F=BLOCK
 -0.1246241E+01
TITLE = ""
VARIABLES = "F"
ZONE I=1,  F=BLOCK
 -0.1173311E+01
TITLE = ""
VARIABLES = "F"
ZONE I=1,  F=BLOCK
 -0.1007236E+01
TITLE = ""
VARIABLES = "F"
ZONE I=1,  F=BLOCK
 -0.9256695E+00
TITLE = ""
VARIABLES = "F"
ZONE I=1,  F=BLOCK
 -0.9631329E+00
TITLE = ""
VARIABLES = "F"
ZONE I=1,  F=BLOCK
 -0.1050564E+01
TITLE = ""
VARIABLES = "F"
ZONE I=1,  F=BLOCK
 -0.1041265E+01
TITLE = ""
VARIABLES = "F"
ZONE I=1,  F=BLOCK
 -0.9875998E+00
TITLE = ""
VARIABLES = "F"
ZONE I=1,  F=BLOCK
 -0.9660377E+00
TITLE = ""
VARIABLES = "F"
ZONE I=1,  F=BLOCK
 -0.9985413E+00
TITLE = ""
VARIABLES = "F"
ZONE I=1,  F=BLOCK
 -0.1196385E+01
TITLE = ""
VARIABLES = "F"
ZONE I=1,  F=BLOCK
 -0.1604716E+01
TITLE = ""
VARIABLES = "F"
ZONE I=1,  F=BLOCK
 -0.1956411E+01
TITLE = ""
VARIABLES = "F"
ZONE I=1,  F=BLOCK
 -0.1883138E+01
TITLE = ""
VARIABLES = "F"
ZONE I=1,  F=BLOCK
 -0.1427310E+01
TITLE = ""
VARIABLES = "F"
ZONE I=1,  F=BLOCK
 -0.1003143E+01
TITLE = ""
VARIABLES = "F"
ZONE I=1,  F=BLOCK
 -0.8581470E+00
TITLE = ""
VARIABLES = "F"
ZONE I=1,  F=BLOCK
 -0.8993290E+00
TITLE = ""
VARIABLES = "F"
ZONE I=1,  F=BLOCK
 -0.9750536E+00
TITLE = ""
VARIABLES = "F"
ZONE I=1,  F=BLOCK
 -0.1042919E+01
TITLE = ""
VARIABLES = "F"
ZONE I=1,  F=BLOCK
 -0.1089086E+01
TITLE = ""
VARIABLES = "F"
ZONE I=1,  F=BLOCK
 -0.1074484E+01
TITLE = ""
VARIABLES = "F"
ZONE I=1,  F=BLOCK
 -0.1019618E+01
TITLE = ""
VARIABLES = "F"
ZONE I=1,  F=BLOCK
 -0.1035446E+01
TITLE = ""
VARIABLES = "F"
ZONE I=1,  F=BLOCK
 -0.1159108E+01
TITLE = ""
VARIABLES = "F"
ZONE I=1,  F=BLOCK
 -0.1252292E+01
TITLE = ""
VARIABLES = "F"
ZONE I=1,  F=BLOCK
 -0.1193577E+01
TITLE = ""
VARIABLES = "F"
ZONE I=1,  F=BLOCK
 -0.1053381E+01
TITLE = ""
VARIABLES = "F"
ZONE I=1,  F=BLOCK
 -0.9665948E+00
TITLE = ""
VARIABLES = "F"
ZONE I=1,  F=BLOCK
 -0.9665253E+00
TITLE = ""
VARIABLES = "F"
ZONE I=1,  F=BLOCK
 -0.1017318E+01
TITLE = ""
VARIABLES = "F"
ZONE I=1,  F=BLOCK
 -0.1038452E+01
TITLE = ""
VARIABLES = "F"
ZONE I=1,  F=BLOCK
 -0.9723737E+00
TITLE = ""
VARIABLES = "F"
ZONE I=1,  F=BLOCK
 -0.9282396E+00
TITLE = ""
VARIABLES = "F"
ZONE I=1,  F=BLOCK
 -0.9492758E+00
TITLE = ""
VARIABLES = "F"
ZONE I=1,  F=BLOCK
 -0.1152936E+01
TITLE = ""
VARIABLES = "F"
ZONE I=1,  F=BLOCK
 -0.1555560E+01
TITLE = ""
VARIABLES = "F"
ZONE I=1,  F=BLOCK
 -0.1880506E+01
TITLE = ""
VARIABLES = "F"
ZONE I=1,  F=BLOCK
 -0.1807049E+01
TITLE = ""
VARIABLES = "F"
ZONE I=1,  F=BLOCK
 -0.1412159E+01
TITLE = ""
VARIABLES = "F"
ZONE I=1,  F=BLOCK
 -0.1068020E+01
TITLE = ""
VARIABLES = "F"
ZONE I=1,  F=BLOCK
 -0.9594310E+00
TITLE = ""
VARIABLES = "F"
ZONE I=1,  F=BLOCK
 -0.9848649E+00
TITLE = ""
VARIABLES = "F"
ZONE I=1,  F=BLOCK
 -0.1024406E+01
TITLE = ""
VARIABLES = "F"
ZONE I=1,  F=BLOCK
 -0.1060897E+01
TITLE = ""
VARIABLES = "F"
ZONE I=1,  F=BLOCK
 -0.1091848E+01
TITLE = ""
VARIABLES = "F"
ZONE I=1,  F=BLOCK
 -0.1081269E+01
TITLE = ""
VARIABLES = "F"
ZONE I=1,  F=BLOCK
 -0.1031648E+01
TITLE = ""
VARIABLES = "F"
ZONE I=1,  F=BLOCK
 -0.1022286E+01
TITLE = ""
VARIABLES = "F"
ZONE I=1,  F=BLOCK
 -0.1093837E+01
TITLE = ""
VARIABLES = "F"
ZONE I=1,  F=BLOCK
 -0.1160487E+01
TITLE = ""
VARIABLES = "F"
ZONE I=1,  F=BLOCK
 -0.1134695E+01
TITLE = ""
VARIABLES = "F"
ZONE I=1,  F=BLOCK
 -0.1053342E+01
TITLE = ""
VARIABLES = "F"
ZONE I=1,  F=BLOCK
 -0.9980308E+00
TITLE = ""
VARIABLES = "F"
ZONE I=1,  F=BLOCK
 -0.9909714E+00
TITLE = ""
VARIABLES = "F"
ZONE I=1,  F=BLOCK
 -0.1021230E+01
TITLE = ""
VARIABLES = "F"
ZONE I=1,  F=BLOCK
 -0.1065927E+01
TITLE = ""
VARIABLES = "F"
ZONE I=1,  F=BLOCK
 -0.9931761E+00
TITLE = ""
VARIABLES = "F"
ZONE I=1,  F=BLOCK
 -0.9415362E+00
TITLE = ""
VARIABLES = "F"
ZONE I=1,  F=BLOCK
 -0.9809337E+00
TITLE = ""
VARIABLES = "F"
ZONE I=1,  F=BLOCK
 -0.1221713E+01
TITLE = ""
VARIABLES = "F"
ZONE I=1,  F=BLOCK
 -0.1630059E+01
TITLE = ""
VARIABLES = "F"
ZONE I=1,  F=BLOCK
 -0.1912501E+01
TITLE = ""
VARIABLES = "F"
ZONE I=1,  F=BLOCK
 -0.1801925E+01
TITLE = ""
VARIABLES = "F"
ZONE I=1,  F=BLOCK
 -0.1420269E+01
TITLE = ""
VARIABLES = "F"
ZONE I=1,  F=BLOCK
 -0.1118222E+01
TITLE = ""
VARIABLES = "F"
ZONE I=1,  F=BLOCK
 -0.1039106E+01
TITLE = ""
VARIABLES = "F"
ZONE I=1,  F=BLOCK
 -0.1066090E+01
TITLE = ""
VARIABLES = "F"
ZONE I=1,  F=BLOCK
 -0.1080701E+01
TITLE = ""
VARIABLES = "F"
ZONE I=1,  F=BLOCK
 -0.1076605E+01
TITLE = ""
VARIABLES = "F"
ZONE I=1,  F=BLOCK
 -0.1078252E+01
TITLE = ""
VARIABLES = "F"
ZONE I=1,  F=BLOCK
 -0.1072288E+01
TITLE = ""
VARIABLES = "F"
ZONE I=1,  F=BLOCK
 -0.1044663E+01
TITLE = ""
VARIABLES = "F"
ZONE I=1,  F=BLOCK
 -0.1030788E+01
TITLE = ""
VARIABLES = "F"
ZONE I=1,  F=BLOCK
 -0.1060656E+01
TITLE = ""
VARIABLES = "F"
ZONE I=1,  F=BLOCK
 -0.1093276E+01
TITLE = ""
VARIABLES = "F"
ZONE I=1,  F=BLOCK
 -0.1082552E+01
TITLE = ""
VARIABLES = "F"
ZONE I=1,  F=BLOCK
 -0.1051745E+01
TITLE = ""
VARIABLES = "F"
ZONE I=1,  F=BLOCK
 -0.1041027E+01
TITLE = ""
VARIABLES = "F"
ZONE I=1,  F=BLOCK
 -0.1051695E+01
TITLE = ""
VARIABLES = "F"
ZONE I=1,  F=BLOCK
 -0.1077470E+01
TITLE = ""
VARIABLES = "F"
ZONE I=1,  F=BLOCK
 -0.1171447E+01
TITLE = ""
VARIABLES = "F"
ZONE I=1,  F=BLOCK
 -0.1113313E+01
TITLE = ""
VARIABLES = "F"
ZONE I=1,  F=BLOCK
 -0.1074030E+01
TITLE = ""
VARIABLES = "F"
ZONE I=1,  F=BLOCK
 -0.1148358E+01
TITLE = ""
VARIABLES = "F"
ZONE I=1,  F=BLOCK
 -0.1437825E+01
TITLE = ""
VARIABLES = "F"
ZONE I=1,  F=BLOCK
 -0.1864330E+01
TITLE = ""
VARIABLES = "F"
ZONE I=1,  F=BLOCK
 -0.2115967E+01
TITLE = ""
VARIABLES = "F"
ZONE I=1,  F=BLOCK
 -0.1953295E+01
TITLE = ""
VARIABLES = "F"
ZONE I=1,  F=BLOCK
 -0.1524969E+01
TITLE = ""
VARIABLES = "F"
ZONE I=1,  F=BLOCK
 -0.1191553E+01
TITLE = ""
VARIABLES = "F"
ZONE I=1,  F=BLOCK
 -0.1106305E+01
TITLE = ""
VARIABLES = "F"
ZONE I=1,  F=BLOCK
 -0.1146685E+01
TITLE = ""
VARIABLES = "F"
ZONE I=1,  F=BLOCK
 -0.1165760E+01
TITLE = ""
VARIABLES = "F"
ZONE I=1,  F=BLOCK
 -0.1146445E+01
TITLE = ""
VARIABLES = "F"
ZONE I=1,  F=BLOCK
 -0.1140886E+01
TITLE = ""
VARIABLES = "F"
ZONE I=1,  F=BLOCK
 -0.1162740E+01
TITLE = ""
VARIABLES = "F"
ZONE I=1,  F=BLOCK
 -0.1184319E+01
TITLE = ""
VARIABLES = "F"
ZONE I=1,  F=BLOCK
 -0.1200687E+01
TITLE = ""
VARIABLES = "F"
ZONE I=1,  F=BLOCK
 -0.1220149E+01
TITLE = ""
VARIABLES = "F"
ZONE I=1,  F=BLOCK
 -0.1218577E+01
TITLE = ""
VARIABLES = "F"
ZONE I=1,  F=BLOCK
 -0.1181039E+01
TITLE = ""
VARIABLES = "F"
ZONE I=1,  F=BLOCK
 -0.1144757E+01
TITLE = ""
VARIABLES = "F"
ZONE I=1,  F=BLOCK
 -0.1142723E+01
TITLE = ""
VARIABLES = "F"
ZONE I=1,  F=BLOCK
 -0.1161098E+01
TITLE = ""
VARIABLES = "F"
ZONE I=1,  F=BLOCK
 -0.1180893E+01
TITLE = ""
VARIABLES = "F"
ZONE I=1,  F=BLOCK
 -0.1365594E+01
TITLE = ""
VARIABLES = "F"
ZONE I=1,  F=BLOCK
 -0.1343891E+01
TITLE = ""
VARIABLES = "F"
ZONE I=1,  F=BLOCK
 -0.1317918E+01
TITLE = ""
VARIABLES = "F"
ZONE I=1,  F=BLOCK
 -0.1398195E+01
TITLE = ""
VARIABLES = "F"
ZONE I=1,  F=BLOCK
 -0.1692617E+01
TITLE = ""
VARIABLES = "F"
ZONE I=1,  F=BLOCK
 -0.2119265E+01
TITLE = ""
VARIABLES = "F"
ZONE I=1,  F=BLOCK
 -0.2369567E+01
TITLE = ""
VARIABLES = "F"
ZONE I=1,  F=BLOCK
 -0.2200796E+01
TITLE = ""
VARIABLES = "F"
ZONE I=1,  F=BLOCK
 -0.1742529E+01
TITLE = ""
VARIABLES = "F"
ZONE I=1,  F=BLOCK
 -0.1360525E+01
TITLE = ""
VARIABLES = "F"
ZONE I=1,  F=BLOCK
 -0.1247248E+01
TITLE = ""
VARIABLES = "F"
ZONE I=1,  F=BLOCK
 -0.1296210E+01
TITLE = ""
VARIABLES = "F"
ZONE I=1,  F=BLOCK
 -0.1334909E+01
TITLE = ""
VARIABLES = "F"
ZONE I=1,  F=BLOCK
 -0.1328515E+01
TITLE = ""
VARIABLES = "F"
ZONE I=1,  F=BLOCK
 -0.1339881E+01
TITLE = ""
VARIABLES = "F"
ZONE I=1,  F=BLOCK
 -0.1391125E+01
TITLE = ""
VARIABLES = "F"
ZONE I=1,  F=BLOCK
 -0.1447738E+01
TITLE = ""
VARIABLES = "F"
ZONE I=1,  F=BLOCK
 -0.1498102E+01
TITLE = ""
VARIABLES = "F"
ZONE I=1,  F=BLOCK
 -0.1542368E+01
TITLE = ""
VARIABLES = "F"
ZONE I=1,  F=BLOCK
 -0.1537513E+01
TITLE = ""
VARIABLES = "F"
ZONE I=1,  F=BLOCK
 -0.1459179E+01
TITLE = ""
VARIABLES = "F"
ZONE I=1,  F=BLOCK
 -0.1366112E+01
TITLE = ""
VARIABLES = "F"
ZONE I=1,  F=BLOCK
 -0.1323034E+01
TITLE = ""
VARIABLES = "F"
ZONE I=1,  F=BLOCK
 -0.1322049E+01
TITLE = ""
VARIABLES = "F"
ZONE I=1,  F=BLOCK
 -0.1323708E+01
TITLE = ""
VARIABLES = "F"
ZONE I=1,  F=BLOCK
 -0.1583103E+01
TITLE = ""
VARIABLES = "F"
ZONE I=1,  F=BLOCK
 -0.1606607E+01
TITLE = ""
VARIABLES = "F"
ZONE I=1,  F=BLOCK
 -0.1584188E+01
TITLE = ""
VARIABLES = "F"
ZONE I=1,  F=BLOCK
 -0.1630610E+01
TITLE = ""
VARIABLES = "F"
ZONE I=1,  F=BLOCK
 -0.1877048E+01
TITLE = ""
VARIABLES = "F"
ZONE I=1,  F=BLOCK
 -0.2280058E+01
TITLE = ""
VARIABLES = "F"
ZONE I=1,  F=BLOCK
 -0.2561596E+01
TITLE = ""
VARIABLES = "F"
ZONE I=1,  F=BLOCK
 -0.2460194E+01
TITLE = ""
VARIABLES = "F"
ZONE I=1,  F=BLOCK
 -0.2045957E+01
TITLE = ""
VARIABLES = "F"
ZONE I=1,  F=BLOCK
 -0.1655568E+01
TITLE = ""
VARIABLES = "F"
ZONE I=1,  F=BLOCK
 -0.1510184E+01
TITLE = ""
VARIABLES = "F"
ZONE I=1,  F=BLOCK
 -0.1537868E+01
TITLE = ""
VARIABLES = "F"
ZONE I=1,  F=BLOCK
 -0.1572661E+01
TITLE = ""
VARIABLES = "F"
ZONE I=1,  F=BLOCK
 -0.1575130E+01
TITLE = ""
VARIABLES = "F"
ZONE I=1,  F=BLOCK
 -0.1598551E+01
TITLE = ""
VARIABLES = "F"
ZONE I=1,  F=BLOCK
 -0.1646022E+01
TITLE = ""
VARIABLES = "F"
ZONE I=1,  F=BLOCK
 -0.1683026E+01
TITLE = ""
VARIABLES = "F"
ZONE I=1,  F=BLOCK
 -0.1737258E+01
TITLE = ""
VARIABLES = "F"
ZONE I=1,  F=BLOCK
 -0.1834854E+01
TITLE = ""
VARIABLES = "F"
ZONE I=1,  F=BLOCK
 -0.1888900E+01
TITLE = ""
VARIABLES = "F"
ZONE I=1,  F=BLOCK
 -0.1810167E+01
TITLE = ""
VARIABLES = "F"
ZONE I=1,  F=BLOCK
 -0.1659038E+01
TITLE = ""
VARIABLES = "F"
ZONE I=1,  F=BLOCK
 -0.1556085E+01
TITLE = ""
VARIABLES = "F"
ZONE I=1,  F=BLOCK
 -0.1522791E+01
TITLE = ""
VARIABLES = "F"
ZONE I=1,  F=BLOCK
 -0.1499307E+01
TITLE = ""
VARIABLES = "F"
ZONE I=1,  F=BLOCK
 -0.1721066E+01
TITLE = ""
VARIABLES = "F"
ZONE I=1,  F=BLOCK
 -0.1779791E+01
TITLE = ""
VARIABLES = "F"
ZONE I=1,  F=BLOCK
 -0.1757187E+01
TITLE = ""
VARIABLES = "F"
ZONE I=1,  F=BLOCK
 -0.1763214E+01
TITLE = ""
VARIABLES = "F"
ZONE I=1,  F=BLOCK
 -0.1954434E+01
TITLE = ""
VARIABLES = "F"
ZONE I=1,  F=BLOCK
 -0.2336137E+01
TITLE = ""
VARIABLES = "F"
ZONE I=1,  F=BLOCK
 -0.2664103E+01
TITLE = ""
VARIABLES = "F"
ZONE I=1,  F=BLOCK
 -0.2656021E+01
TITLE = ""
VARIABLES = "F"
ZONE I=1,  F=BLOCK
 -0.2319970E+01
TITLE = ""
VARIABLES = "F"
ZONE I=1,  F=BLOCK
 -0.1949042E+01
TITLE = ""
VARIABLES = "F"
ZONE I=1,  F=BLOCK
 -0.1771008E+01
TITLE = ""
VARIABLES = "F"
ZONE I=1,  F=BLOCK
 -0.1747941E+01
TITLE = ""
VARIABLES = "F"
ZONE I=1,  F=BLOCK
 -0.1744423E+01
TITLE = ""
VARIABLES = "F"
ZONE I=1,  F=BLOCK
 -0.1733528E+01
TITLE = ""
VARIABLES = "F"
ZONE I=1,  F=BLOCK
 -0.1752544E+01
TITLE = ""
VARIABLES = "F"
ZONE I=1,  F=BLOCK
 -0.1770559E+01
TITLE = ""
VARIABLES = "F"
ZONE I=1,  F=BLOCK
 -0.1751886E+01
TITLE = ""
VARIABLES = "F"
ZONE I=1,  F=BLOCK
 -0.1785221E+01
TITLE = ""
VARIABLES = "F"
ZONE I=1,  F=BLOCK
 -0.1948569E+01
TITLE = ""
VARIABLES = "F"
ZONE I=1,  F=BLOCK
 -0.2107931E+01
TITLE = ""
VARIABLES = "F"
ZONE I=1,  F=BLOCK
 -0.2077730E+01
TITLE = ""
VARIABLES = "F"
ZONE I=1,  F=BLOCK
 -0.1898473E+01
TITLE = ""
VARIABLES = "F"
ZONE I=1,  F=BLOCK
 -0.1751809E+01
TITLE = ""
VARIABLES = "F"
ZONE I=1,  F=BLOCK
 -0.1699645E+01
TITLE = ""
VARIABLES = "F"
ZONE I=1,  F=BLOCK
 -0.1662780E+01
TITLE = ""
VARIABLES = "F"
ZONE I=1,  F=BLOCK
 -0.1717121E+01
TITLE = ""
VARIABLES = "F"
ZONE I=1,  F=BLOCK
 -0.1783672E+01
TITLE = ""
VARIABLES = "F"
ZONE I=1,  F=BLOCK
 -0.1759259E+01
TITLE = ""
VARIABLES = "F"
ZONE I=1,  F=BLOCK
 -0.1744702E+01
TITLE = ""
VARIABLES = "F"
ZONE I=1,  F=BLOCK
 -0.1909942E+01
TITLE = ""
VARIABLES = "F"
ZONE I=1,  F=BLOCK
 -0.2289697E+01
TITLE = ""
VARIABLES = "F"
ZONE I=1,  F=BLOCK
 -0.2652011E+01
TITLE = ""
VARIABLES = "F"
ZONE I=1,  F=BLOCK
 -0.2694177E+01
TITLE = ""
VARIABLES = "F"
ZONE I=1,  F=BLOCK
 -0.2393649E+01
TITLE = ""
VARIABLES = "F"
ZONE I=1,  F=BLOCK
 -0.2027115E+01
TITLE = ""
VARIABLES = "F"
ZONE I=1,  F=BLOCK
 -0.1823183E+01
TITLE = ""
VARIABLES = "F"
ZONE I=1,  F=BLOCK
 -0.1758051E+01
TITLE = ""
VARIABLES = "F"
ZONE I=1,  F=BLOCK
 -0.1718840E+01
TITLE = ""
VARIABLES = "F"
ZONE I=1,  F=BLOCK
 -0.1695040E+01
TITLE = ""
VARIABLES = "F"
ZONE I=1,  F=BLOCK
 -0.1715529E+01
TITLE = ""
VARIABLES = "F"
ZONE I=1,  F=BLOCK
 -0.1719358E+01
TITLE = ""
VARIABLES = "F"
ZONE I=1,  F=BLOCK
 -0.1662066E+01
TITLE = ""
VARIABLES = "F"
ZONE I=1,  F=BLOCK
 -0.1678578E+01
TITLE = ""
VARIABLES = "F"
ZONE I=1,  F=BLOCK
 -0.1893145E+01
TITLE = ""
VARIABLES = "F"
ZONE I=1,  F=BLOCK
 -0.2135312E+01
TITLE = ""
VARIABLES = "F"
ZONE I=1,  F=BLOCK
 -0.2141057E+01
TITLE = ""
VARIABLES = "F"
ZONE I=1,  F=BLOCK
 -0.1941835E+01
TITLE = ""
VARIABLES = "F"
ZONE I=1,  F=BLOCK
 -0.1777062E+01
TITLE = ""
VARIABLES = "F"
ZONE I=1,  F=BLOCK
 -0.1739123E+01
TITLE = ""
VARIABLES = "F"
ZONE I=1,  F=BLOCK
 -0.1723950E+01
TITLE = ""
VARIABLES = "F"
ZONE I=1,  F=BLOCK
 -0.1589046E+01
TITLE = ""
VARIABLES = "F"
ZONE I=1,  F=BLOCK
 -0.1630431E+01
TITLE = ""
VARIABLES = "F"
ZONE I=1,  F=BLOCK
 -0.1593417E+01
TITLE = ""
VARIABLES = "F"
ZONE I=1,  F=BLOCK
 -0.1568634E+01
TITLE = ""
VARIABLES = "F"
ZONE I=1,  F=BLOCK
 -0.1726373E+01
TITLE = ""
VARIABLES = "F"
ZONE I=1,  F=BLOCK
 -0.2109599E+01
TITLE = ""
VARIABLES = "F"
ZONE I=1,  F=BLOCK
 -0.2477367E+01
TITLE = ""
VARIABLES = "F"
ZONE I=1,  F=BLOCK
 -0.2507063E+01
TITLE = ""
VARIABLES = "F"
ZONE I=1,  F=BLOCK
 -0.2180353E+01
TITLE = ""
VARIABLES = "F"
ZONE I=1,  F=BLOCK
 -0.1797833E+01
TITLE = ""
VARIABLES = "F"
ZONE I=1,  F=BLOCK
 -0.1595063E+01
TITLE = ""
VARIABLES = "F"
ZONE I=1,  F=BLOCK
 -0.1535963E+01
TITLE = ""
VARIABLES = "F"
ZONE I=1,  F=BLOCK
 -0.1502184E+01
TITLE = ""
VARIABLES = "F"
ZONE I=1,  F=BLOCK
 -0.1490219E+01
TITLE = ""
VARIABLES = "F"
ZONE I=1,  F=BLOCK
 -0.1529952E+01
TITLE = ""
VARIABLES = "F"
ZONE I=1,  F=BLOCK
 -0.1545105E+01
TITLE = ""
VARIABLES = "F"
ZONE I=1,  F=BLOCK
 -0.1481944E+01
TITLE = ""
VARIABLES = "F"
ZONE I=1,  F=BLOCK
 -0.1495512E+01
TITLE = ""
VARIABLES = "F"
ZONE I=1,  F=BLOCK
 -0.1726272E+01
TITLE = ""
VARIABLES = "F"
ZONE I=1,  F=BLOCK
 -0.1975614E+01
TITLE = ""
VARIABLES = "F"
ZONE I=1,  F=BLOCK
 -0.1951892E+01
TITLE = ""
VARIABLES = "F"
ZONE I=1,  F=BLOCK
 -0.1717437E+01
TITLE = ""
VARIABLES = "F"
ZONE I=1,  F=BLOCK
 -0.1561013E+01
TITLE = ""
VARIABLES = "F"
ZONE I=1,  F=BLOCK
 -0.1577353E+01
TITLE = ""
VARIABLES = "F"
ZONE I=1,  F=BLOCK
 -0.1627547E+01
TITLE = ""
VARIABLES = "F"
ZONE I=1,  F=BLOCK
 -0.1404182E+01
TITLE = ""
VARIABLES = "F"
ZONE I=1,  F=BLOCK
 -0.1401600E+01
TITLE = ""
VARIABLES = "F"
ZONE I=1,  F=BLOCK
 -0.1341223E+01
TITLE = ""
VARIABLES = "F"
ZONE I=1,  F=BLOCK
 -0.1303476E+01
TITLE = ""
VARIABLES = "F"
ZONE I=1,  F=BLOCK
 -0.1452735E+01
TITLE = ""
VARIABLES = "F"
ZONE I=1,  F=BLOCK
 -0.1831332E+01
TITLE = ""
VARIABLES = "F"
ZONE I=1,  F=BLOCK
 -0.2182862E+01
TITLE = ""
VARIABLES = "F"
ZONE I=1,  F=BLOCK
 -0.2168650E+01
TITLE = ""
VARIABLES = "F"
ZONE I=1,  F=BLOCK
 -0.1792481E+01
TITLE = ""
VARIABLES = "F"
ZONE I=1,  F=BLOCK
 -0.1397704E+01
TITLE = ""
VARIABLES = "F"
ZONE I=1,  F=BLOCK
 -0.1227785E+01
TITLE = ""
VARIABLES = "F"
ZONE I=1,  F=BLOCK
 -0.1216825E+01
TITLE = ""
VARIABLES = "F"
ZONE I=1,  F=BLOCK
 -0.1220543E+01
TITLE = ""
VARIABLES = "F"
ZONE I=1,  F=BLOCK
 -0.1231866E+01
TITLE = ""
VARIABLES = "F"
ZONE I=1,  F=BLOCK
 -0.1285484E+01
TITLE = ""
VARIABLES = "F"
ZONE I=1,  F=BLOCK
 -0.1306003E+01
TITLE = ""
VARIABLES = "F"
ZONE I=1,  F=BLOCK
 -0.1243486E+01
TITLE = ""
VARIABLES = "F"
ZONE I=1,  F=BLOCK
 -0.1259652E+01
TITLE = ""
VARIABLES = "F"
ZONE I=1,  F=BLOCK
 -0.1481010E+01
TITLE = ""
VARIABLES = "F"
ZONE I=1,  F=BLOCK
 -0.1682617E+01
TITLE = ""
VARIABLES = "F"
ZONE I=1,  F=BLOCK
 -0.1589036E+01
TITLE = ""
VARIABLES = "F"
ZONE I=1,  F=BLOCK
 -0.1321872E+01
TITLE = ""
VARIABLES = "F"
ZONE I=1,  F=BLOCK
 -0.1199850E+01
TITLE = ""
VARIABLES = "F"
ZONE I=1,  F=BLOCK
 -0.1292612E+01
TITLE = ""
VARIABLES = "F"
ZONE I=1,  F=BLOCK
 -0.1426756E+01
TITLE = ""
VARIABLES = "F"
ZONE I=1,  F=BLOCK
 -0.1225314E+01
TITLE = ""
VARIABLES = "F"
ZONE I=1,  F=BLOCK
 -0.1186412E+01
TITLE = ""
VARIABLES = "F"
ZONE I=1,  F=BLOCK
 -0.1114740E+01
TITLE = ""
VARIABLES = "F"
ZONE I=1,  F=BLOCK
 -0.1081412E+01
TITLE = ""
VARIABLES = "F"
ZONE I=1,  F=BLOCK
 -0.1240204E+01
TITLE = ""
VARIABLES = "F"
ZONE I=1,  F=BLOCK
 -0.1624540E+01
TITLE = ""
VARIABLES = "F"
ZONE I=1,  F=BLOCK
 -0.1962399E+01
TITLE = ""
VARIABLES = "F"
ZONE I=1,  F=BLOCK
 -0.1908544E+01
TITLE = ""
VARIABLES = "F"
ZONE I=1,  F=BLOCK
 -0.1492327E+01
TITLE = ""
VARIABLES = "F"
ZONE I=1,  F=BLOCK
 -0.1091427E+01
TITLE = ""
VARIABLES = "F"
ZONE I=1,  F=BLOCK
 -0.9513463E+00
TITLE = ""
VARIABLES = "F"
ZONE I=1,  F=BLOCK
 -0.9809312E+00
TITLE = ""
VARIABLES = "F"
ZONE I=1,  F=BLOCK
 -0.1014592E+01
TITLE = ""
VARIABLES = "F"
ZONE I=1,  F=BLOCK
 -0.1037817E+01
TITLE = ""
VARIABLES = "F"
ZONE I=1,  F=BLOCK
 -0.1086240E+01
TITLE = ""
VARIABLES = "F"
ZONE I=1,  F=BLOCK
 -0.1094772E+01
TITLE = ""
VARIABLES = "F"
ZONE I=1,  F=BLOCK
 -0.1031384E+01
TITLE = ""
VARIABLES = "F"
ZONE I=1,  F=BLOCK
 -0.1059730E+01
TITLE = ""
VARIABLES = "F"
ZONE I=1,  F=BLOCK
 -0.1275721E+01
TITLE = ""
VARIABLES = "F"
ZONE I=1,  F=BLOCK
 -0.1431068E+01
TITLE = ""
VARIABLES = "F"
ZONE I=1,  F=BLOCK
 -0.1281518E+01
TITLE = ""
VARIABLES = "F"
ZONE I=1,  F=BLOCK
 -0.9992210E+00
TITLE = ""
VARIABLES = "F"
ZONE I=1,  F=BLOCK
 -0.9081847E+00
TITLE = ""
VARIABLES = "F"
ZONE I=1,  F=BLOCK
 -0.1049850E+01
TITLE = ""
VARIABLES = "F"
ZONE I=1,  F=BLOCK
 -0.1237308E+01
TITLE = ""
VARIABLES = "F"
ZONE I=1,  F=BLOCK
 -0.1090047E+01
TITLE = ""
VARIABLES = "F"
ZONE I=1,  F=BLOCK
 -0.1039206E+01
TITLE = ""
VARIABLES = "F"
ZONE I=1,  F=BLOCK
 -0.9881521E+00
TITLE = ""
VARIABLES = "F"
ZONE I=1,  F=BLOCK
 -0.9993054E+00
TITLE = ""
VARIABLES = "F"
ZONE I=1,  F=BLOCK
 -0.1204762E+01
TITLE = ""
VARIABLES = "F"
ZONE I=1,  F=BLOCK
 -0.1613758E+01
TITLE = ""
VARIABLES = "F"
ZONE I=1,  F=BLOCK
 -0.1944268E+01
TITLE = ""
VARIABLES = "F"
ZONE I=1,  F=BLOCK
 -0.1865792E+01
TITLE = ""
VARIABLES = "F"
ZONE I=1,  F=BLOCK
 -0.1430840E+01
TITLE = ""
VARIABLES = "F"
ZONE I=1,  F=BLOCK
 -0.1023024E+01
TITLE = ""
VARIABLES = "F"
ZONE I=1,  F=BLOCK
 -0.8801375E+00
TITLE = ""
VARIABLES = "F"
ZONE I=1,  F=BLOCK
 -0.9099820E+00
TITLE = ""
VARIABLES = "F"
ZONE I=1,  F=BLOCK
 -0.9505402E+00
TITLE = ""
VARIABLES = "F"
ZONE I=1,  F=BLOCK
 -0.9799224E+00
TITLE = ""
VARIABLES = "F"
ZONE I=1,  F=BLOCK
 -0.1022314E+01
TITLE = ""
VARIABLES = "F"
ZONE I=1,  F=BLOCK
 -0.1020293E+01
TITLE = ""
VARIABLES = "F"
ZONE I=1,  F=BLOCK
 -0.9633153E+00
TITLE = ""
VARIABLES = "F"
ZONE I=1,  F=BLOCK
 -0.1012688E+01
TITLE = ""
VARIABLES = "F"
ZONE I=1,  F=BLOCK
 -0.1233688E+01
TITLE = ""
VARIABLES = "F"
ZONE I=1,  F=BLOCK
 -0.1368033E+01
TITLE = ""
VARIABLES = "F"
ZONE I=1,  F=BLOCK
 -0.1198553E+01
TITLE = ""
VARIABLES = "F"
ZONE I=1,  F=BLOCK
 -0.9128593E+00
TITLE = ""
VARIABLES = "F"
ZONE I=1,  F=BLOCK
 -0.8176066E+00
TITLE = ""
VARIABLES = "F"
ZONE I=1,  F=BLOCK
 -0.9448839E+00
TITLE = ""
VARIABLES = "F"
ZONE I=1,  F=BLOCK
 -0.1126880E+01
TITLE = ""
VARIABLES = "F"
ZONE I=1,  F=BLOCK
 -0.1017296E+01
TITLE = ""
VARIABLES = "F"
ZONE I=1,  F=BLOCK
 -0.9713942E+00
TITLE = ""
VARIABLES = "F"
ZONE I=1,  F=BLOCK
 -0.9575032E+00
TITLE = ""
VARIABLES = "F"
ZONE I=1,  F=BLOCK
 -0.1027184E+01
TITLE = ""
VARIABLES = "F"
ZONE I=1,  F=BLOCK
 -0.1276900E+01
TITLE = ""
VARIABLES = "F"
ZONE I=1,  F=BLOCK
 -0.1684239E+01
TITLE = ""
VARIABLES = "F"
ZONE I=1,  F=BLOCK
 -0.1982297E+01
TITLE = ""
VARIABLES = "F"
ZONE I=1,  F=BLOCK
 -0.1889927E+01
TITLE = ""
VARIABLES = "F"
ZONE I=1,  F=BLOCK