TITLE = "FUNCTION" 
VARIABLES = "x1", "Error"  
ZONE T = "BIG ZONE" , I=20, J=1, F=BLOCK  
0.0000000E+00	 1.0526000E-01	 2.1052000E-01	 3.1578000E-01	 4.2105000E-01	 5.2631000E-01	 6.3157000E-01	 
7.3684000E-01	 8.4210000E-01	 9.4736000E-01	 1.0526300E+00	 1.1578900E+00	 1.2631500E+00	 1.3684200E+00	 
1.4736800E+00	 1.5789400E+00	 1.6842100E+00	 1.7894700E+00	 1.8947300E+00	 2.0000000E+00	 
0.0000000E+00	2.2614802E+00	3.2735396E+00	2.9819349E+00	1.5625866E+00	5.7056887E-01	2.8572475E+00	
4.7596837E+00	5.9124560E+00	6.1895751E+00	5.6737656E+00	4.5734166E+00	3.1484530E+00	1.6515801E+00	
2.9549980E-01	7.5066036E-01	1.3647237E+00	1.4695833E+00	1.0200169E+00	0.0000000E+00	