TITLE = " FUNCTION 1D " 
VARIABLES = "x" "F"  
ZONE T = "zone1 " , I=20, F=BLOCK  
0.0000000E+00	 1.0526000E-01	 2.1052000E-01	 3.1578000E-01	 4.2105000E-01	 5.2631000E-01	 6.3157000E-01	 
7.3684000E-01	 8.4210000E-01	 9.4736000E-01	 1.0526300E+00	 1.1578900E+00	 1.2631500E+00	 1.3684200E+00	 
1.4736800E+00	 1.5789400E+00	 1.6842100E+00	 1.7894700E+00	 1.8947300E+00	 2.0000000E+00	 
4.2739300E-07	1.1077830E-02	4.4316850E-02	9.9717640E-02	1.7727900E-01	2.7700140E-01	3.9888520E-01	
5.4292880E-01	7.0913350E-01	8.9749800E-01	1.1080240E+00	1.3407090E+00	1.5955560E+00	1.8725620E+00	
2.1717310E+00	2.4930600E+00	2.8365510E+00	3.2022050E+00	3.5900200E+00	3.9999980E+00	