TITLE = " FUNCTION 1D " 
VARIABLES = "x" "F"  
ZONE T = "zone1 " , I=20, F=BLOCK  
0.0000000E+00	 1.0526000E-01	 2.1052000E-01	 3.1578000E-01	 4.2105000E-01	 5.2631000E-01	 6.3157000E-01	 
7.3684000E-01	 8.4210000E-01	 9.4736000E-01	 1.0526300E+00	 1.1578900E+00	 1.2631500E+00	 1.3684200E+00	 
1.4736800E+00	 1.5789400E+00	 1.6842100E+00	 1.7894700E+00	 1.8947300E+00	 2.0000000E+00	 
1.0000000E+00	9.0581967E-01	8.3379867E-01	7.8393701E-01	7.5623310E-01	7.5069222E-01	7.6731066E-01	
8.0609319E-01	8.6703241E-01	9.5013097E-01	1.0553999E+00	1.1828193E+00	1.3323979E+00	1.5041533E+00	
1.6980527E+00	1.9141115E+00	2.1523533E+00	2.4127329E+00	2.6952718E+00	3.0000000E+00	