TITLE = " FUNCTION 1D " 
VARIABLES = "x" "F"  
ZONE T = "zone1 " , I=20, F=BLOCK  
0.0000000E+00	 1.0526000E-01	 2.1052000E-01	 3.1578000E-01	 4.2105000E-01	 5.2631000E-01	 6.3157000E-01	 
7.3684000E-01	 8.4210000E-01	 9.4736000E-01	 1.0526300E+00	 1.1578900E+00	 1.2631500E+00	 1.3684200E+00	 
1.4736800E+00	 1.5789400E+00	 1.6842100E+00	 1.7894700E+00	 1.8947300E+00	 2.0000000E+00	 
1.0000000E+00	9.2630460E-01	8.6109340E-01	8.0731350E-01	7.6804990E-01	7.4640900E-01	7.4538670E-01	
7.6772570E-01	8.1576950E-01	8.9132190E-01	9.9551900E-01	1.1287240E+00	1.2904480E+00	1.4793110E+00	
1.6930350E+00	1.9284800E+00	2.1817270E+00	2.4481900E+00	2.7227640E+00	3.0000000E+00	