TITLE = " FUNCTION 1D " 
VARIABLES = "x" "F"  
ZONE T = "zone1 " , I=5, F=BLOCK  
0.0000000E+00	 2.0000000E+00	 5.0000000E-01	 1.5000000E+00	 0.0000000E+00	 
1.0000000E+00	3.0000000E+00	7.5000000E-01	1.7500000E+00	1.0000000E+00	